VARIABLES = "X", "Y", "U", "V", "P"
ZONE I=   150, J=    40, K=1, F= POINT
 1.0000000E-01  1.0000000E-01  9.9998063E+01  1.9367885E-03 -2.0432549E+04
 3.0000000E-01  1.0000000E-01  9.9995316E+01  8.1037245E-04 -2.0437639E+04
 5.0000000E-01  1.0000000E-01  9.9994155E+01  3.5031484E-04 -2.0440843E+04
 7.0000000E-01  1.0000000E-01  9.9993667E+01  1.3769063E-04 -2.0443208E+04
 9.0000000E-01  1.0000000E-01  9.9993526E+01  4.0136204E-06 -2.0445157E+04
 1.1000000E+00  1.0000000E-01  9.9993630E+01 -1.0802831E-04 -2.0446887E+04
 1.3000000E+00  1.0000000E-01  9.9993959E+01 -2.2117903E-04 -2.0448502E+04
 1.5000000E+00  1.0000000E-01  9.9994527E+01 -3.4668982E-04 -2.0450064E+04
 1.7000000E+00  1.0000000E-01  9.9995365E+01 -4.9181505E-04 -2.0451615E+04
 1.9000000E+00  1.0000000E-01  9.9996520E+01 -6.6254198E-04 -2.0453183E+04
 2.1000000E+00  1.0000000E-01  9.9998047E+01 -8.6472959E-04 -2.0454790E+04
 2.3000000E+00  1.0000000E-01  1.0000002E+02 -1.1046720E-03 -2.0456454E+04
 2.5000000E+00  1.0000000E-01  1.0000251E+02 -1.3894407E-03 -2.0458188E+04
 2.7000000E+00  1.0000000E-01  1.0000563E+02 -1.7271425E-03 -2.0460007E+04
 2.9000000E+00  1.0000000E-01  1.0000948E+02 -2.1271492E-03 -2.0461921E+04
 3.1000000E+00  1.0000000E-01  1.0001421E+02 -2.6003255E-03 -2.0463943E+04
 3.3000000E+00  1.0000000E-01  1.0001997E+02 -3.1592673E-03 -2.0466084E+04
 3.5000000E+00  1.0000000E-01  1.0002695E+02 -3.8185564E-03 -2.0468354E+04
 3.7000000E+00  1.0000000E-01  1.0003536E+02 -4.5950319E-03 -2.0470764E+04
 3.9000000E+00  1.0000000E-01  1.0004546E+02 -5.5080766E-03 -2.0473326E+04
 4.1000000E+00  1.0000000E-01  1.0005755E+02 -6.5799126E-03 -2.0476049E+04
 4.3000000E+00  1.0000000E-01  1.0007197E+02 -7.8358929E-03 -2.0478946E+04
 4.5000000E+00  1.0000000E-01  1.0008911E+02 -9.3047729E-03 -2.0482025E+04
 4.7000000E+00  1.0000000E-01  1.0010943E+02 -1.1018934E-02 -2.0485299E+04
 4.9000000E+00  1.0000000E-01  1.0013346E+02 -1.3014521E-02 -2.0488774E+04
 5.1000000E+00  1.0000000E-01  1.0016181E+02 -1.5331439E-02 -2.0492459E+04
 5.3000000E+00  1.0000000E-01  1.0019516E+02 -1.8013137E-02 -2.0496359E+04
 5.5000000E+00  1.0000000E-01  1.0023427E+02 -2.1106078E-02 -2.0500476E+04
 5.7000000E+00  1.0000000E-01  1.0028004E+02 -2.4658781E-02 -2.0504805E+04
 5.9000000E+00  1.0000000E-01  1.0033342E+02 -2.8720253E-02 -2.0509337E+04
 6.1000000E+00  1.0000000E-01  1.0039548E+02 -3.3337644E-02 -2.0514051E+04
 6.3000000E+00  1.0000000E-01  1.0046737E+02 -3.8552870E-02 -2.0518913E+04
 6.5000000E+00  1.0000000E-01  1.0055032E+02 -4.4397974E-02 -2.0523872E+04
 6.7000000E+00  1.0000000E-01  1.0064560E+02 -5.0888952E-02 -2.0528853E+04
 6.9000000E+00  1.0000000E-01  1.0075451E+02 -5.8017828E-02 -2.0533750E+04
 7.1000000E+00  1.0000000E-01  1.0087827E+02 -6.5742842E-02 -2.0538413E+04
 7.3000000E+00  1.0000000E-01  1.0101799E+02 -7.3976832E-02 -2.0542645E+04
 7.5000000E+00  1.0000000E-01  1.0117454E+02 -8.2574147E-02 -2.0546180E+04
 7.7000000E+00  1.0000000E-01  1.0134843E+02 -9.1316985E-02 -2.0548672E+04
 7.9000000E+00  1.0000000E-01  1.0153965E+02 -9.9902620E-02 -2.0549673E+04
 8.1000000E+00  1.0000000E-01  1.0174749E+02 -1.0793384E-01 -2.0548620E+04
 8.3000000E+00  1.0000000E-01  1.0197034E+02 -1.1491573E-01 -2.0544813E+04
 8.5000000E+00  1.0000000E-01  1.0220552E+02 -1.2026277E-01 -2.0537400E+04
 8.7000000E+00  1.0000000E-01  1.0244910E+02 -1.2332031E-01 -2.0525367E+04
 8.9000000E+00  1.0000000E-01  1.0269583E+02 -1.2340419E-01 -2.0507542E+04
 9.1000000E+00  1.0000000E-01  1.0293909E+02 -1.1986008E-01 -2.0482602E+04
 9.3000000E+00  1.0000000E-01  1.0317109E+02 -1.1214076E-01 -2.0449113E+04
 9.5000000E+00  1.0000000E-01  1.0338313E+02 -9.9894509E-02 -2.0405579E+04
 9.7000000E+00  1.0000000E-01  1.0356607E+02 -8.3052013E-02 -2.0350517E+04
 9.9000000E+00  1.0000000E-01  1.0371102E+02 -6.1894559E-02 -2.0282550E+04
 1.0100000E+01  1.0000000E-01  1.0381000E+02 -3.7084989E-02 -2.0200508E+04
 1.0300000E+01  1.0000000E-01  1.0385673E+02 -9.6466429E-03 -2.0103526E+04
 1.0500000E+01  1.0000000E-01  1.0384726E+02  1.9114953E-02 -1.9991125E+04
 1.0700000E+01  1.0000000E-01  1.0378041E+02  4.7739782E-02 -1.9863267E+04
 1.0900000E+01  1.0000000E-01  1.0365790E+02  7.4769855E-02 -1.9720362E+04
 1.1100000E+01  1.0000000E-01  1.0348422E+02  9.8906083E-02 -1.9563243E+04
 1.1300000E+01  1.0000000E-01  1.0326618E+02  1.1913688E-01 -1.9393097E+04
 1.1500000E+01  1.0000000E-01  1.0301222E+02  1.3481740E-01 -1.9211371E+04
 1.1700000E+01  1.0000000E-01  1.0273172E+02  1.4569098E-01 -1.9019670E+04
 1.1900000E+01  1.0000000E-01  1.0243417E+02  1.5185779E-01 -1.8819646E+04
 1.2100000E+01  1.0000000E-01  1.0212860E+02  1.5370528E-01 -1.8612912E+04
 1.2300000E+01  1.0000000E-01  1.0182308E+02  1.5181933E-01 -1.8400966E+04
 1.2500000E+01  1.0000000E-01  1.0152437E+02  1.4689365E-01 -1.8185149E+04
 1.2700000E+01  1.0000000E-01  1.0123782E+02  1.3965034E-01 -1.7966616E+04
 1.2900000E+01  1.0000000E-01  1.0096739E+02  1.3077871E-01 -1.7746329E+04
 1.3100000E+01  1.0000000E-01  1.0071572E+02  1.2089445E-01 -1.7525066E+04
 1.3300000E+01  1.0000000E-01  1.0048431E+02  1.1051737E-01 -1.7303435E+04
 1.3500000E+01  1.0000000E-01  1.0027373E+02  1.0006410E-01 -1.7081897E+04
 1.3700000E+01  1.0000000E-01  1.0008381E+02  8.9851443E-02 -1.6860788E+04
 1.3900000E+01  1.0000000E-01  9.9913853E+01  8.0106447E-02 -1.6640342E+04
 1.4100000E+01  1.0000000E-01  9.9762767E+01  7.0979763E-02 -1.6420713E+04
 1.4300000E+01  1.0000000E-01  9.9629227E+01  6.2560041E-02 -1.6201990E+04
 1.4500000E+01  1.0000000E-01  9.9511779E+01  5.4887725E-02 -1.5984216E+04
 1.4700000E+01  1.0000000E-01  9.9408924E+01  4.7967342E-02 -1.5767400E+04
 1.4900000E+01  1.0000000E-01  9.9319179E+01  4.1777915E-02 -1.5551524E+04
 1.5100000E+01  1.0000000E-01  9.9241120E+01  3.6281392E-02 -1.5336554E+04
 1.5300000E+01  1.0000000E-01  9.9173409E+01  3.1429240E-02 -1.5122444E+04
 1.5500000E+01  1.0000000E-01  9.9114813E+01  2.7167413E-02 -1.4909145E+04
 1.5700000E+01  1.0000000E-01  9.9064205E+01  2.3439982E-02 -1.4696601E+04
 1.5900000E+01  1.0000000E-01  9.9020574E+01  2.0191667E-02 -1.4484757E+04
 1.6100000E+01  1.0000000E-01  9.8983012E+01  1.7369531E-02 -1.4273559E+04
 1.6300000E+01  1.0000000E-01  9.8950719E+01  1.4924027E-02 -1.4062954E+04
 1.6500000E+01  1.0000000E-01  9.8922985E+01  1.2809578E-02 -1.3852894E+04
 1.6700000E+01  1.0000000E-01  9.8899191E+01  1.0984817E-02 -1.3643331E+04
 1.6900000E+01  1.0000000E-01  9.8878793E+01  9.4125917E-03 -1.3434223E+04
 1.7100000E+01  1.0000000E-01  9.8861321E+01  8.0598185E-03 -1.3225529E+04
 1.7300000E+01  1.0000000E-01  9.8846364E+01  6.8972408E-03 -1.3017212E+04
 1.7500000E+01  1.0000000E-01  9.8833568E+01  5.8991314E-03 -1.2809240E+04
 1.7700000E+01  1.0000000E-01  9.8822625E+01  5.0429722E-03 -1.2601582E+04
 1.7900000E+01  1.0000000E-01  9.8813273E+01  4.3091306E-03 -1.2394209E+04
 1.8100000E+01  1.0000000E-01  9.8805284E+01  3.6805445E-03 -1.2187096E+04
 1.8300000E+01  1.0000000E-01  9.8798461E+01  3.1424259E-03 -1.1980221E+04
 1.8500000E+01  1.0000000E-01  9.8792636E+01  2.6819872E-03 -1.1773562E+04
 1.8700000E+01  1.0000000E-01  9.8787666E+01  2.2881912E-03 -1.1567100E+04
 1.8900000E+01  1.0000000E-01  9.8783426E+01  1.9515273E-03 -1.1360818E+04
 1.9100000E+01  1.0000000E-01  9.8779811E+01  1.6638113E-03 -1.1154700E+04
 1.9300000E+01  1.0000000E-01  9.8776729E+01  1.4180086E-03 -1.0948733E+04
 1.9500000E+01  1.0000000E-01  9.8774103E+01  1.2080786E-03 -1.0742903E+04
 1.9700000E+01  1.0000000E-01  9.8771866E+01  1.0288385E-03 -1.0537198E+04
 1.9900000E+01  1.0000000E-01  9.8769962E+01  8.7584492E-04 -1.0331608E+04
 2.0100000E+01  1.0000000E-01  9.8768340E+01  7.4529035E-04 -1.0126123E+04
 2.0300000E+01  1.0000000E-01  9.8766961E+01  6.3391403E-04 -9.9207345E+03
 2.0500000E+01  1.0000000E-01  9.8765788E+01  5.3892478E-04 -9.7154342E+03
 2.0700000E+01  1.0000000E-01  9.8764791E+01  4.5793422E-04 -9.5102148E+03
 2.0900000E+01  1.0000000E-01  9.8763945E+01  3.8889921E-04 -9.3050696E+03
 2.1100000E+01  1.0000000E-01  9.8763226E+01  3.3007261E-04 -9.0999926E+03
 2.1300000E+01  1.0000000E-01  9.8762616E+01  2.7996085E-04 -8.8949781E+03
 2.1500000E+01  1.0000000E-01  9.8762098E+01  2.3728723E-04 -8.6900212E+03
 2.1700000E+01  1.0000000E-01  9.8761660E+01  2.0096079E-04 -8.4851170E+03
 2.1900000E+01  1.0000000E-01  9.8761289E+01  1.7004944E-04 -8.2802614E+03
 2.2100000E+01  1.0000000E-01  9.8760975E+01  1.4375708E-04 -8.0754504E+03
 2.2300000E+01  1.0000000E-01  9.8760710E+01  1.2140359E-04 -7.8706804E+03
 2.2500000E+01  1.0000000E-01  9.8760486E+01  1.0240829E-04 -7.6659483E+03
 2.2700000E+01  1.0000000E-01  9.8760298E+01  8.6275396E-05 -7.4612509E+03
 2.2900000E+01  1.0000000E-01  9.8760139E+01  7.2581662E-05 -7.2565855E+03
 2.3100000E+01  1.0000000E-01  9.8760005E+01  6.0965815E-05 -7.0519496E+03
 2.3300000E+01  1.0000000E-01  9.8759893E+01  5.1119633E-05 -6.8473409E+03
 2.3500000E+01  1.0000000E-01  9.8759799E+01  4.2780079E-05 -6.6427571E+03
 2.3700000E+01  1.0000000E-01  9.8759721E+01  3.5722821E-05 -6.4381963E+03
 2.3900000E+01  1.0000000E-01  9.8759655E+01  2.9756465E-05 -6.2336568E+03
 2.4100000E+01  1.0000000E-01  9.8759601E+01  2.4717836E-05 -6.0291367E+03
 2.4300000E+01  1.0000000E-01  9.8759556E+01  2.0467771E-05 -5.8246346E+03
 2.4500000E+01  1.0000000E-01  9.8759518E+01  1.6887708E-05 -5.6201491E+03
 2.4700000E+01  1.0000000E-01  9.8759488E+01  1.3876712E-05 -5.4156788E+03
 2.4900000E+01  1.0000000E-01  9.8759462E+01  1.1348691E-05 -5.2112226E+03
 2.5100000E+01  1.0000000E-01  9.8759442E+01  9.2302824E-06 -5.0067793E+03
 2.5300000E+01  1.0000000E-01  9.8759425E+01  7.4590609E-06 -4.8023479E+03
 2.5500000E+01  1.0000000E-01  9.8759412E+01  5.9819680E-06 -4.5979274E+03
 2.5700000E+01  1.0000000E-01  9.8759401E+01  4.7537851E-06 -4.3935170E+03
 2.5900000E+01  1.0000000E-01  9.8759392E+01  3.7360784E-06 -4.1891158E+03
 2.6100000E+01  1.0000000E-01  9.8759386E+01  2.8962873E-06 -3.9847231E+03
 2.6300000E+01  1.0000000E-01  9.8759381E+01  2.2066378E-06 -3.7803382E+03
 2.6500000E+01  1.0000000E-01  9.8759377E+01  1.6436488E-06 -3.5759603E+03
 2.6700000E+01  1.0000000E-01  9.8759374E+01  1.1873088E-06 -3.3715890E+03
 2.6900000E+01  1.0000000E-01  9.8759372E+01  8.2063905E-07 -3.1672237E+03
 2.7100000E+01  1.0000000E-01  9.8759371E+01  5.2931477E-07 -2.9628637E+03
 2.7300000E+01  1.0000000E-01  9.8759370E+01  3.0119353E-07 -2.7585087E+03
 2.7500000E+01  1.0000000E-01  9.8759369E+01  1.2595578E-07 -2.5541581E+03
 2.7700000E+01  1.0000000E-01  9.8759369E+01 -5.1312218E-09 -2.3498116E+03
 2.7900000E+01  1.0000000E-01  9.8759369E+01 -9.9404265E-08 -2.1454686E+03
 2.8100000E+01  1.0000000E-01  9.8759370E+01 -1.6310593E-07 -1.9411289E+03
 2.8300000E+01  1.0000000E-01  9.8759370E+01 -2.0154772E-07 -1.7367921E+03
 2.8500000E+01  1.0000000E-01  9.8759370E+01 -2.1924509E-07 -1.5324577E+03
 2.8700000E+01  1.0000000E-01  9.8759371E+01 -2.2002010E-07 -1.3281256E+03
 2.8900000E+01  1.0000000E-01  9.8759371E+01 -2.0711963E-07 -1.1237953E+03
 2.9100000E+01  1.0000000E-01  9.8759372E+01 -1.8321101E-07 -9.1946660E+02
 2.9300000E+01  1.0000000E-01  9.8759372E+01 -1.5079572E-07 -7.1513911E+02
 2.9500000E+01  1.0000000E-01  9.8759372E+01 -1.1208044E-07 -5.1081258E+02
 2.9700000E+01  1.0000000E-01  9.8759372E+01 -6.8993635E-08 -3.0648672E+02
 2.9900000E+01  1.0000000E-01  9.8759372E+01 -2.3081712E-08 -1.0216127E+02
 1.0000000E-01  3.0000000E-01  1.0000075E+02  3.1191427E-03 -2.0437459E+04
 3.0000000E-01  3.0000000E-01  1.0000152E+02  1.6097392E-03 -2.0439525E+04
 5.0000000E-01  3.0000000E-01  1.0000143E+02  8.0147133E-04 -2.0441681E+04
 7.0000000E-01  3.0000000E-01  1.0000127E+02  3.3410873E-04 -2.0443625E+04
 9.0000000E-01  3.0000000E-01  1.0000123E+02 -9.5975397E-06 -2.0445377E+04
 1.1000000E+00  3.0000000E-01  1.0000135E+02 -3.2298637E-04 -2.0447001E+04
 1.3000000E+00  3.0000000E-01  1.0000167E+02 -6.5119530E-04 -2.0448554E+04
 1.5000000E+00  3.0000000E-01  1.0000221E+02 -1.0204825E-03 -2.0450076E+04
 1.7000000E+00  3.0000000E-01  1.0000300E+02 -1.4498821E-03 -2.0451598E+04
 1.9000000E+00  3.0000000E-01  1.0000410E+02 -1.9562171E-03 -2.0453144E+04
 2.1000000E+00  3.0000000E-01  1.0000555E+02 -2.5565016E-03 -2.0454734E+04
 2.3000000E+00  3.0000000E-01  1.0000744E+02 -3.2692759E-03 -2.0456383E+04
 2.5000000E+00  3.0000000E-01  1.0000984E+02 -4.1154977E-03 -2.0458104E+04
 2.7000000E+00  3.0000000E-01  1.0001284E+02 -5.1192580E-03 -2.0459911E+04
 2.9000000E+00  3.0000000E-01  1.0001656E+02 -6.3084448E-03 -2.0461814E+04
 3.1000000E+00  3.0000000E-01  1.0002113E+02 -7.7154147E-03 -2.0463825E+04
 3.3000000E+00  3.0000000E-01  1.0002670E+02 -9.3777024E-03 -2.0465955E+04
 3.5000000E+00  3.0000000E-01  1.0003346E+02 -1.1338783E-02 -2.0468214E+04
 3.7000000E+00  3.0000000E-01  1.0004162E+02 -1.3648887E-02 -2.0470614E+04
 3.9000000E+00  3.0000000E-01  1.0005143E+02 -1.6365872E-02 -2.0473165E+04
 4.1000000E+00  3.0000000E-01  1.0006318E+02 -1.9556112E-02 -2.0475878E+04
 4.3000000E+00  3.0000000E-01  1.0007720E+02 -2.3295396E-02 -2.0478764E+04
 4.5000000E+00  3.0000000E-01  1.0009388E+02 -2.7669771E-02 -2.0481835E+04
 4.7000000E+00  3.0000000E-01  1.0011368E+02 -3.2776245E-02 -2.0485099E+04
 4.9000000E+00  3.0000000E-01  1.0013711E+02 -3.8723260E-02 -2.0488568E+04
 5.1000000E+00  3.0000000E-01  1.0016477E+02 -4.5630748E-02 -2.0492249E+04
 5.3000000E+00  3.0000000E-01  1.0019735E+02 -5.3629587E-02 -2.0496149E+04
 5.5000000E+00  3.0000000E-01  1.0023560E+02 -6.2860139E-02 -2.0500271E+04
 5.7000000E+00  3.0000000E-01  1.0028040E+02 -7.3469520E-02 -2.0504612E+04
 5.9000000E+00  3.0000000E-01  1.0033272E+02 -8.5607111E-02 -2.0509167E+04
 6.1000000E+00  3.0000000E-01  1.0039362E+02 -9.9417732E-02 -2.0513918E+04
 6.3000000E+00  3.0000000E-01  1.0046429E+02 -1.1503178E-01 -2.0518836E+04
 6.5000000E+00  3.0000000E-01  1.0054597E+02 -1.3255156E-01 -2.0523875E+04
 6.7000000E+00  3.0000000E-01  1.0063999E+02 -1.5203299E-01 -2.0528969E+04
 6.9000000E+00  3.0000000E-01  1.0074767E+02 -1.7346194E-01 -2.0534021E+04
 7.1000000E+00  3.0000000E-01  1.0087033E+02 -1.9672477E-01 -2.0538893E+04
 7.3000000E+00  3.0000000E-01  1.0100919E+02 -2.2157304E-01 -2.0543401E+04
 7.5000000E+00  3.0000000E-01  1.0116525E+02 -2.4758347E-01 -2.0547296E+04
 7.7000000E+00  3.0000000E-01  1.0133916E+02 -2.7411542E-01 -2.0550247E+04
 7.9000000E+00  3.0000000E-01  1.0153111E+02 -3.0027023E-01 -2.0551827E+04
 8.1000000E+00  3.0000000E-01  1.0174056E+02 -3.2485944E-01 -2.0551489E+04
 8.3000000E+00  3.0000000E-01  1.0196612E+02 -3.4639122E-01 -2.0548548E+04
 8.5000000E+00  3.0000000E-01  1.0220524E+02 -3.6308742E-01 -2.0542158E+04
 8.7000000E+00  3.0000000E-01  1.0245410E+02 -3.7294448E-01 -2.0531307E+04
 8.9000000E+00  3.0000000E-01  1.0270745E+02 -3.7385050E-01 -2.0514802E+04
 9.1000000E+00  3.0000000E-01  1.0295854E+02 -3.6376514E-01 -2.0491290E+04
 9.3000000E+00  3.0000000E-01  1.0319926E+02 -3.4095832E-01 -2.0459282E+04
 9.5000000E+00  3.0000000E-01  1.0342043E+02 -3.0428796E-01 -2.0417208E+04
 9.7000000E+00  3.0000000E-01  1.0361231E+02 -2.5347788E-01 -2.0363496E+04
 9.9000000E+00  3.0000000E-01  1.0376523E+02 -1.8934102E-01 -2.0296671E+04
 1.0100000E+01  3.0000000E-01  1.0387050E+02 -1.1388703E-01 -2.0215471E+04
 1.0300000E+01  3.0000000E-01  1.0392119E+02 -3.0264299E-02 -2.0118952E+04
 1.0500000E+01  3.0000000E-01  1.0391291E+02  5.7482785E-02 -2.0006588E+04
 1.0700000E+01  3.0000000E-01  1.0384432E+02  1.4481755E-01 -1.9878328E+04
 1.0900000E+01  3.0000000E-01  1.0371731E+02  2.2720902E-01 -1.9734610E+04
 1.1100000E+01  3.0000000E-01  1.0353682E+02  3.0063124E-01 -1.9576332E+04
 1.1300000E+01  3.0000000E-01  1.0331031E+02  3.6197013E-01 -1.9404767E+04
 1.1500000E+01  3.0000000E-01  1.0304697E+02  4.0926963E-01 -1.9221467E+04
 1.1700000E+01  3.0000000E-01  1.0275693E+02  4.4179112E-01 -1.9028134E+04
 1.1900000E+01  3.0000000E-01  1.0245033E+02  4.5990463E-01 -1.8826511E+04
 1.2100000E+01  3.0000000E-01  1.0213669E+02  4.6486139E-01 -1.8618281E+04
 1.2300000E+01  3.0000000E-01  1.0182437E+02  4.5850971E-01 -1.8404991E+04
 1.2500000E+01  3.0000000E-01  1.0152028E+02  4.4301023E-01 -1.8188009E+04
 1.2700000E+01  3.0000000E-01  1.0122976E+02  4.2059042E-01 -1.7968498E+04
 1.2900000E+01  3.0000000E-01  1.0095667E+02  3.9335915E-01 -1.7747417E+04
 1.3100000E+01  3.0000000E-01  1.0070347E+02  3.6318580E-01 -1.7525527E+04
 1.3300000E+01  3.0000000E-01  1.0047147E+02  3.3163712E-01 -1.7303418E+04
 1.3500000E+01  3.0000000E-01  1.0026104E+02  2.9995965E-01 -1.7081529E+04
 1.3700000E+01  3.0000000E-01  1.0007182E+02  2.6909385E-01 -1.6860172E+04
 1.3900000E+01  3.0000000E-01  9.9902933E+01  2.3970743E-01 -1.6639561E+04
 1.4100000E+01  3.0000000E-01  9.9753160E+01  2.1223800E-01 -1.6419832E+04
 1.4300000E+01  3.0000000E-01  9.9621064E+01  1.8693773E-01 -1.6201060E+04
 1.4500000E+01  3.0000000E-01  9.9505106E+01  1.6391563E-01 -1.5983273E+04
 1.4700000E+01  3.0000000E-01  9.9403726E+01  1.4317491E-01 -1.5766469E+04
 1.4900000E+01  3.0000000E-01  9.9315397E+01  1.2464419E-01 -1.5550623E+04
 1.5100000E+01  3.0000000E-01  9.9238669E+01  1.0820272E-01 -1.5335696E+04
 1.5300000E+01  3.0000000E-01  9.9172188E+01  9.3699915E-02 -1.5121636E+04
 1.5500000E+01  3.0000000E-01  9.9114711E+01  8.0970025E-02 -1.4908390E+04
 1.5700000E+01  3.0000000E-01  9.9065113E+01  6.9842712E-02 -1.4695900E+04
 1.5900000E+01  3.0000000E-01  9.9022383E+01  6.0150444E-02 -1.4484110E+04
 1.6100000E+01  3.0000000E-01  9.8985622E+01  5.1733355E-02 -1.4272964E+04
 1.6300000E+01  3.0000000E-01  9.8954033E+01  4.4442224E-02 -1.4062409E+04
 1.6500000E+01  3.0000000E-01  9.8926918E+01  3.8140077E-02 -1.3852395E+04
 1.6700000E+01  3.0000000E-01  9.8903664E+01  3.2702800E-02 -1.3642876E+04
 1.6900000E+01  3.0000000E-01  9.8883737E+01  2.8019080E-02 -1.3433807E+04
 1.7100000E+01  3.0000000E-01  9.8866673E+01  2.3989909E-02 -1.3225150E+04
 1.7300000E+01  3.0000000E-01  9.8852069E+01  2.0527810E-02 -1.3016867E+04
 1.7500000E+01  3.0000000E-01  9.8839578E+01  1.7555919E-02 -1.2808926E+04
 1.7700000E+01  3.0000000E-01  9.8828900E+01  1.5007006E-02 -1.2601295E+04
 1.7900000E+01  3.0000000E-01  9.8819774E+01  1.2822484E-02 -1.2393948E+04
 1.8100000E+01  3.0000000E-01  9.8811980E+01  1.0951463E-02 -1.2186859E+04
 1.8300000E+01  3.0000000E-01  9.8805324E+01  9.3498520E-03 -1.1980004E+04
 1.8500000E+01  3.0000000E-01  9.8799644E+01  7.9795358E-03 -1.1773364E+04
 1.8700000E+01  3.0000000E-01  9.8794797E+01  6.8076269E-03 -1.1566920E+04
 1.8900000E+01  3.0000000E-01  9.8790663E+01  5.8057924E-03 -1.1360653E+04
 1.9100000E+01  3.0000000E-01  9.8787138E+01  4.9496561E-03 -1.1154550E+04
 1.9300000E+01  3.0000000E-01  9.8784134E+01  4.2182689E-03 -1.0948596E+04
 1.9500000E+01  3.0000000E-01  9.8781574E+01  3.5936447E-03 -1.0742777E+04
 1.9700000E+01  3.0000000E-01  9.8779394E+01  3.0603536E-03 -1.0537083E+04
 1.9900000E+01  3.0000000E-01  9.8777538E+01  2.6051678E-03 -1.0331503E+04
 2.0100000E+01  3.0000000E-01  9.8775958E+01  2.2167542E-03 -1.0126027E+04
 2.0300000E+01  3.0000000E-01  9.8774615E+01  1.8854074E-03 -9.9206461E+03
 2.0500000E+01  3.0000000E-01  9.8773472E+01  1.6028204E-03 -9.7153532E+03
 2.0700000E+01  3.0000000E-01  9.8772501E+01  1.3618851E-03 -9.5101405E+03
 2.0900000E+01  3.0000000E-01  9.8771676E+01  1.1565215E-03 -9.3050014E+03
 2.1100000E+01  3.0000000E-01  9.8770976E+01  9.8153071E-04 -9.0999300E+03
 2.1300000E+01  3.0000000E-01  9.8770382E+01  8.3246802E-04 -8.8949206E+03
 2.1500000E+01  3.0000000E-01  9.8769879E+01  7.0553468E-04 -8.6899683E+03
 2.1700000E+01  3.0000000E-01  9.8769452E+01  5.9748457E-04 -8.4850684E+03
 2.1900000E+01  3.0000000E-01  9.8769091E+01  5.0554434E-04 -8.2802167E+03
 2.2100000E+01  3.0000000E-01  9.8768786E+01  4.2734502E-04 -8.0754093E+03
 2.2300000E+01  3.0000000E-01  9.8768528E+01  3.6086333E-04 -7.8706426E+03
 2.2500000E+01  3.0000000E-01  9.8768310E+01  3.0437158E-04 -7.6659135E+03
 2.2700000E+01  3.0000000E-01  9.8768127E+01  2.5639469E-04 -7.4612189E+03
 2.2900000E+01  3.0000000E-01  9.8767973E+01  2.1567349E-04 -7.2565561E+03
 2.3100000E+01  3.0000000E-01  9.8767843E+01  1.8113327E-04 -7.0519225E+03
 2.3300000E+01  3.0000000E-01  9.8767734E+01  1.5185692E-04 -6.8473159E+03
 2.3500000E+01  3.0000000E-01  9.8767643E+01  1.2706196E-04 -6.6427341E+03
 2.3700000E+01  3.0000000E-01  9.8767567E+01  1.0608092E-04 -6.4381751E+03
 2.3900000E+01  3.0000000E-01  9.8767503E+01  8.8344483E-05 -6.2336372E+03
 2.4100000E+01  3.0000000E-01  9.8767451E+01  7.3367219E-05 -6.0291187E+03
 2.4300000E+01  3.0000000E-01  9.8767407E+01  6.0735271E-05 -5.8246180E+03
 2.4500000E+01  3.0000000E-01  9.8767371E+01  5.0095923E-05 -5.6201338E+03
 2.4700000E+01  3.0000000E-01  9.8767341E+01  4.1148655E-05 -5.4156648E+03
 2.4900000E+01  3.0000000E-01  9.8767317E+01  3.3637442E-05 -5.2112097E+03
 2.5100000E+01  3.0000000E-01  9.8767297E+01  2.7344239E-05 -5.0067674E+03
 2.5300000E+01  3.0000000E-01  9.8767281E+01  2.2083432E-05 -4.8023369E+03
 2.5500000E+01  3.0000000E-01  9.8767268E+01  1.7697082E-05 -4.5979173E+03
 2.5700000E+01  3.0000000E-01  9.8767258E+01  1.4050825E-05 -4.3935077E+03
 2.5900000E+01  3.0000000E-01  9.8767250E+01  1.1030420E-05 -4.1891073E+03
 2.6100000E+01  3.0000000E-01  9.8767243E+01  8.5388037E-06 -3.9847153E+03
 2.6300000E+01  3.0000000E-01  9.8767238E+01  6.4935046E-06 -3.7803310E+03
 2.6500000E+01  3.0000000E-01  9.8767235E+01  4.8245227E-06 -3.5759538E+03
 2.6700000E+01  3.0000000E-01  9.8767232E+01  3.4724428E-06 -3.3715831E+03
 2.6900000E+01  3.0000000E-01  9.8767230E+01  2.3868773E-06 -3.1672182E+03
 2.7100000E+01  3.0000000E-01  9.8767229E+01  1.5251400E-06 -2.9628588E+03
 2.7300000E+01  3.0000000E-01  9.8767228E+01  8.5107518E-07 -2.7585042E+03
 2.7500000E+01  3.0000000E-01  9.8767228E+01  3.3406403E-07 -2.5541541E+03
 2.7700000E+01  3.0000000E-01  9.8767228E+01 -5.1802222E-08 -2.3498080E+03
 2.7900000E+01  3.0000000E-01  9.8767228E+01 -3.2843249E-07 -2.1454654E+03
 2.8100000E+01  3.0000000E-01  9.8767229E+01 -5.1437310E-07 -1.9411261E+03
 2.8300000E+01  3.0000000E-01  9.8767229E+01 -6.2533739E-07 -1.7367896E+03
 2.8500000E+01  3.0000000E-01  9.8767229E+01 -6.7465307E-07 -1.5324556E+03
 2.8700000E+01  3.0000000E-01  9.8767230E+01 -6.7364301E-07 -1.3281237E+03
 2.8900000E+01  3.0000000E-01  9.8767230E+01 -6.3196318E-07 -1.1237938E+03
 2.9100000E+01  3.0000000E-01  9.8767231E+01 -5.5789077E-07 -9.1946533E+02
 2.9300000E+01  3.0000000E-01  9.8767231E+01 -4.5866017E-07 -7.1513813E+02
 2.9500000E+01  3.0000000E-01  9.8767231E+01 -3.4065314E-07 -5.1081188E+02
 2.9700000E+01  3.0000000E-01  9.8767232E+01 -2.0958483E-07 -3.0648631E+02
 2.9900000E+01  3.0000000E-01  9.8767232E+01 -7.0123190E-08 -1.0216114E+02
 1.0000000E-01  5.0000000E-01  1.0000032E+02  2.0434807E-03 -2.0440303E+04
 3.0000000E-01  5.0000000E-01  1.0000074E+02  1.5033449E-03 -2.0441322E+04
 5.0000000E-01  5.0000000E-01  1.0000083E+02  9.0899716E-04 -2.0442732E+04
 7.0000000E-01  5.0000000E-01  1.0000081E+02  4.0684768E-04 -2.0444233E+04
 9.0000000E-01  5.0000000E-01  1.0000082E+02 -5.3529533E-05 -2.0445724E+04
 1.1000000E+00  5.0000000E-01  1.0000094E+02 -5.2313471E-04 -2.0447188E+04
 1.3000000E+00  5.0000000E-01  1.0000121E+02 -1.0401516E-03 -2.0448637E+04
 1.5000000E+00  5.0000000E-01  1.0000168E+02 -1.6341904E-03 -2.0450087E+04
 1.7000000E+00  5.0000000E-01  1.0000238E+02 -2.3310525E-03 -2.0451557E+04
 1.9000000E+00  5.0000000E-01  1.0000336E+02 -3.1559945E-03 -2.0453063E+04
 2.1000000E+00  5.0000000E-01  1.0000468E+02 -4.1358512E-03 -2.0454619E+04
 2.3000000E+00  5.0000000E-01  1.0000641E+02 -5.3005183E-03 -2.0456239E+04
 2.5000000E+00  5.0000000E-01  1.0000861E+02 -6.6841244E-03 -2.0457935E+04
 2.7000000E+00  5.0000000E-01  1.0001138E+02 -8.3260816E-03 -2.0459719E+04
 2.9000000E+00  5.0000000E-01  1.0001484E+02 -1.0272123E-02 -2.0461599E+04
 3.1000000E+00  5.0000000E-01  1.0001909E+02 -1.2575389E-02 -2.0463589E+04
 3.3000000E+00  5.0000000E-01  1.0002430E+02 -1.5297592E-02 -2.0465697E+04
 3.5000000E+00  5.0000000E-01  1.0003063E+02 -1.8510283E-02 -2.0467935E+04
 3.7000000E+00  5.0000000E-01  1.0003829E+02 -2.2296223E-02 -2.0470313E+04
 3.9000000E+00  5.0000000E-01  1.0004751E+02 -2.6750844E-02 -2.0472842E+04
 4.1000000E+00  5.0000000E-01  1.0005858E+02 -3.1983782E-02 -2.0475534E+04
 4.3000000E+00  5.0000000E-01  1.0007181E+02 -3.8120424E-02 -2.0478399E+04
 4.5000000E+00  5.0000000E-01  1.0008758E+02 -4.5303399E-02 -2.0481450E+04
 4.7000000E+00  5.0000000E-01  1.0010634E+02 -5.3693882E-02 -2.0484697E+04
 4.9000000E+00  5.0000000E-01  1.0012857E+02 -6.3472547E-02 -2.0488151E+04
 5.1000000E+00  5.0000000E-01  1.0015487E+02 -7.4839913E-02 -2.0491823E+04
 5.3000000E+00  5.0000000E-01  1.0018589E+02 -8.8015742E-02 -2.0495720E+04
 5.5000000E+00  5.0000000E-01  1.0022240E+02 -1.0323703E-01 -2.0499849E+04
 5.7000000E+00  5.0000000E-01  1.0026526E+02 -1.2075399E-01 -2.0504212E+04
 5.9000000E+00  5.0000000E-01  1.0031545E+02 -1.4082320E-01 -2.0508808E+04
 6.1000000E+00  5.0000000E-01  1.0037403E+02 -1.6369702E-01 -2.0513627E+04
 6.3000000E+00  5.0000000E-01  1.0044222E+02 -1.8960800E-01 -2.0518649E+04
 6.5000000E+00  5.0000000E-01  1.0052131E+02 -2.1874701E-01 -2.0523840E+04
 6.7000000E+00  5.0000000E-01  1.0061269E+02 -2.5123352E-01 -2.0529150E+04
 6.9000000E+00  5.0000000E-01  1.0071783E+02 -2.8707676E-01 -2.0534498E+04
 7.1000000E+00  5.0000000E-01  1.0083818E+02 -3.2612644E-01 -2.0539772E+04
 7.3000000E+00  5.0000000E-01  1.0097516E+02 -3.6801294E-01 -2.0544816E+04
 7.5000000E+00  5.0000000E-01  1.0113004E+02 -4.1207784E-01 -2.0549410E+04
 7.7000000E+00  5.0000000E-01  1.0130380E+02 -4.5729822E-01 -2.0553262E+04
 7.9000000E+00  5.0000000E-01  1.0149698E+02 -5.0221139E-01 -2.0555981E+04
 8.1000000E+00  5.0000000E-01  1.0170946E+02 -5.4485106E-01 -2.0557059E+04
 8.3000000E+00  5.0000000E-01  1.0194022E+02 -5.8271147E-01 -2.0555840E+04
 8.5000000E+00  5.0000000E-01  1.0218709E+02 -6.1276082E-01 -2.0551501E+04
 8.7000000E+00  5.0000000E-01  1.0244648E+02 -6.3152958E-01 -2.0543027E+04
 8.9000000E+00  5.0000000E-01  1.0271317E+02 -6.3529815E-01 -2.0529200E+04
 9.1000000E+00  5.0000000E-01  1.0298017E+02 -6.2040135E-01 -2.0508599E+04
 9.3000000E+00  5.0000000E-01  1.0323877E+02 -5.8364854E-01 -2.0479629E+04
 9.5000000E+00  5.0000000E-01  1.0347883E+02 -5.2282933E-01 -2.0440568E+04
 9.7000000E+00  5.0000000E-01  1.0368925E+02 -4.3723743E-01 -2.0389657E+04
 9.9000000E+00  5.0000000E-01  1.0385886E+02 -3.2810990E-01 -2.0325216E+04
 1.0100000E+01  5.0000000E-01  1.0397733E+02 -1.9886113E-01 -2.0245781E+04
 1.0300000E+01  5.0000000E-01  1.0403636E+02 -5.5007477E-02 -2.0150243E+04
 1.0500000E+01  5.0000000E-01  1.0403060E+02  9.6264053E-02 -2.0037969E+04
 1.0700000E+01  5.0000000E-01  1.0395839E+02  2.4684201E-01 -1.9908883E+04
 1.0900000E+01  5.0000000E-01  1.0382196E+02  3.8862302E-01 -1.9763484E+04
 1.1100000E+01  5.0000000E-01  1.0362722E+02  5.1444725E-01 -1.9602802E+04
 1.1300000E+01  5.0000000E-01  1.0338303E+02  6.1885196E-01 -1.9428304E+04
 1.1500000E+01  5.0000000E-01  1.0310024E+02  6.9851033E-01 -1.9241755E+04
 1.1700000E+01  5.0000000E-01  1.0279053E+02  7.5231064E-01 -1.9045071E+04
 1.1900000E+01  5.0000000E-01  1.0246539E+02  7.8112015E-01 -1.8840180E+04
 1.2100000E+01  5.0000000E-01  1.0213534E+02  7.8733806E-01 -1.8628908E+04
 1.2300000E+01  5.0000000E-01  1.0180933E+02  7.7435991E-01 -1.8412900E+04
 1.2500000E+01  5.0000000E-01  1.0149453E+02  7.4605879E-01 -1.8193576E+04
 1.2700000E+01  5.0000000E-01  1.0119623E+02  7.0635305E-01 -1.7972112E+04
 1.2900000E+01  5.0000000E-01  1.0091802E+02  6.5889209E-01 -1.7749453E+04
 1.3100000E+01  5.0000000E-01  1.0066201E+02  6.0686213E-01 -1.7526328E+04
 1.3300000E+01  5.0000000E-01  1.0042908E+02  5.5289449E-01 -1.7303283E+04
 1.3500000E+01  5.0000000E-01  1.0021916E+02  4.9905154E-01 -1.7080709E+04
 1.3700000E+01  5.0000000E-01  1.0003152E+02  4.4686405E-01 -1.6858875E+04
 1.3900000E+01  5.0000000E-01  9.9864949E+01  3.9739785E-01 -1.6637952E+04
 1.4100000E+01  5.0000000E-01  9.9717937E+01  3.5133277E-01 -1.6418037E+04
 1.4300000E+01  5.0000000E-01  9.9588834E+01  3.0904224E-01 -1.6199175E+04
 1.4500000E+01  5.0000000E-01  9.9475937E+01  2.7066658E-01 -1.5981370E+04
 1.4700000E+01  5.0000000E-01  9.9377565E+01  2.3617633E-01 -1.5764599E+04
 1.4900000E+01  5.0000000E-01  9.9292111E+01  2.0542456E-01 -1.5548819E+04
 1.5100000E+01  5.0000000E-01  9.9218074E+01  1.7818828E-01 -1.5333980E+04
 1.5300000E+01  5.0000000E-01  9.9154069E+01  1.5420021E-01 -1.5120023E+04
 1.5500000E+01  5.0000000E-01  9.9098843E+01  1.3317224E-01 -1.4906885E+04
 1.5700000E+01  5.0000000E-01  9.9051269E+01  1.1481228E-01 -1.4694505E+04
 1.5900000E+01  5.0000000E-01  9.9010345E+01  9.8835668E-02 -1.4482823E+04
 1.6100000E+01  5.0000000E-01  9.8975181E+01  8.4972619E-02 -1.4271781E+04
 1.6300000E+01  5.0000000E-01  9.8945000E+01  7.2972641E-02 -1.4061325E+04
 1.6500000E+01  5.0000000E-01  9.8919118E+01  6.2606740E-02 -1.3851403E+04
 1.6700000E+01  5.0000000E-01  9.8896940E+01  5.3668112E-02 -1.3641970E+04
 1.6900000E+01  5.0000000E-01  9.8877949E+01  4.5971780E-02 -1.3432981E+04
 1.7100000E+01  5.0000000E-01  9.8861697E+01  3.9353578E-02 -1.3224397E+04
 1.7300000E+01  5.0000000E-01  9.8847796E+01  3.3668727E-02 -1.3016181E+04
 1.7500000E+01  5.0000000E-01  9.8835912E+01  2.8790207E-02 -1.2808301E+04
 1.7700000E+01  5.0000000E-01  9.8825756E+01  2.4607056E-02 -1.2600726E+04
 1.7900000E+01  5.0000000E-01  9.8817081E+01  2.1022686E-02 -1.2393429E+04
 1.8100000E+01  5.0000000E-01  9.8809674E+01  1.7953270E-02 -1.2186386E+04
 1.8300000E+01  5.0000000E-01  9.8803351E+01  1.5326238E-02 -1.1979573E+04
 1.8500000E+01  5.0000000E-01  9.8797956E+01  1.3078895E-02 -1.1772971E+04
 1.8700000E+01  5.0000000E-01  9.8793354E+01  1.1157174E-02 -1.1566561E+04
 1.8900000E+01  5.0000000E-01  9.8789430E+01  9.5145181E-03 -1.1360326E+04
 1.9100000E+01  5.0000000E-01  9.8786084E+01  8.1108870E-03 -1.1154251E+04
 1.9300000E+01  5.0000000E-01  9.8783234E+01  6.9118816E-03 -1.0948322E+04
 1.9500000E+01  5.0000000E-01  9.8780806E+01  5.8879761E-03 -1.0742527E+04
 1.9700000E+01  5.0000000E-01  9.8778738E+01  5.0138473E-03 -1.0536854E+04