VARIABLES = "X", "Y", "U", "V", "P"
ZONE I=   150, J=    40, K=1, F= POINT
 1.0000000E-01  1.0000000E-01  9.9998378E+01  1.6224098E-03 -2.0291494E+04
 3.0000000E-01  1.0000000E-01  9.9996082E+01  6.7327801E-04 -2.0296585E+04
 5.0000000E-01  1.0000000E-01  9.9995119E+01  2.8960206E-04 -2.0299791E+04
 7.0000000E-01  1.0000000E-01  9.9994722E+01  1.0744028E-04 -2.0302160E+04
 9.0000000E-01  1.0000000E-01  9.9994627E+01 -1.2345591E-05 -2.0304114E+04
 1.1000000E+00  1.0000000E-01  9.9994756E+01 -1.1720338E-04 -2.0305849E+04
 1.3000000E+00  1.0000000E-01  9.9995100E+01 -2.2624854E-04 -2.0307472E+04
 1.5000000E+00  1.0000000E-01  9.9995675E+01 -3.4923458E-04 -2.0309043E+04
 1.7000000E+00  1.0000000E-01  9.9996517E+01 -4.9272986E-04 -2.0310605E+04
 1.9000000E+00  1.0000000E-01  9.9997672E+01 -6.6237916E-04 -2.0312185E+04
 2.1000000E+00  1.0000000E-01  9.9999199E+01 -8.6385964E-04 -2.0313806E+04
 2.3000000E+00  1.0000000E-01  1.0000117E+02 -1.1033652E-03 -2.0315485E+04
 2.5000000E+00  1.0000000E-01  1.0000366E+02 -1.3879128E-03 -2.0317237E+04
 2.7000000E+00  1.0000000E-01  1.0000677E+02 -1.7255815E-03 -2.0319076E+04
 2.9000000E+00  1.0000000E-01  1.0001062E+02 -2.1257331E-03 -2.0321013E+04
 3.1000000E+00  1.0000000E-01  1.0001535E+02 -2.5992350E-03 -2.0323060E+04
 3.3000000E+00  1.0000000E-01  1.0002110E+02 -3.1586960E-03 -2.0325229E+04
 3.5000000E+00  1.0000000E-01  1.0002808E+02 -3.8187194E-03 -2.0327531E+04
 3.7000000E+00  1.0000000E-01  1.0003650E+02 -4.5961742E-03 -2.0329977E+04
 3.9000000E+00  1.0000000E-01  1.0004660E+02 -5.5104813E-03 -2.0332578E+04
 4.1000000E+00  1.0000000E-01  1.0005870E+02 -6.5839097E-03 -2.0335346E+04
 4.3000000E+00  1.0000000E-01  1.0007312E+02 -7.8418691E-03 -2.0338292E+04
 4.5000000E+00  1.0000000E-01  1.0009028E+02 -9.3131824E-03 -2.0341427E+04
 4.7000000E+00  1.0000000E-01  1.0011062E+02 -1.1030310E-02 -2.0344762E+04
 4.9000000E+00  1.0000000E-01  1.0013468E+02 -1.3029490E-02 -2.0348307E+04
 5.1000000E+00  1.0000000E-01  1.0016306E+02 -1.5350734E-02 -2.0352070E+04
 5.3000000E+00  1.0000000E-01  1.0019645E+02 -1.8037614E-02 -2.0356057E+04
 5.5000000E+00  1.0000000E-01  1.0023563E+02 -2.1136735E-02 -2.0360271E+04
 5.7000000E+00  1.0000000E-01  1.0028146E+02 -2.4696775E-02 -2.0364710E+04
 5.9000000E+00  1.0000000E-01  1.0033492E+02 -2.8766921E-02 -2.0369366E+04
 6.1000000E+00  1.0000000E-01  1.0039708E+02 -3.3394521E-02 -2.0374219E+04
 6.3000000E+00  1.0000000E-01  1.0046910E+02 -3.8621709E-02 -2.0379238E+04
 6.5000000E+00  1.0000000E-01  1.0055220E+02 -4.4480761E-02 -2.0384374E+04
 6.7000000E+00  1.0000000E-01  1.0064767E+02 -5.0987919E-02 -2.0389554E+04
 6.9000000E+00  1.0000000E-01  1.0075679E+02 -5.8135451E-02 -2.0394675E+04
 7.1000000E+00  1.0000000E-01  1.0088081E+02 -6.5881844E-02 -2.0399592E+04
 7.3000000E+00  1.0000000E-01  1.0102083E+02 -7.4140147E-02 -2.0404110E+04
 7.5000000E+00  1.0000000E-01  1.0117774E+02 -8.2764884E-02 -2.0407967E+04
 7.7000000E+00  1.0000000E-01  1.0135204E+02 -9.1538350E-02 -2.0410822E+04
 7.9000000E+00  1.0000000E-01  1.0154374E+02 -1.0015781E-01 -2.0412232E+04
 8.1000000E+00  1.0000000E-01  1.0175212E+02 -1.0822591E-01 -2.0411640E+04
 8.3000000E+00  1.0000000E-01  1.0197560E+02 -1.1524739E-01 -2.0408348E+04
 8.5000000E+00  1.0000000E-01  1.0221148E+02 -1.2063616E-01 -2.0401512E+04
 8.7000000E+00  1.0000000E-01  1.0245585E+02 -1.2373677E-01 -2.0390122E+04
 8.9000000E+00  1.0000000E-01  1.0270345E+02 -1.2386397E-01 -2.0373008E+04
 9.1000000E+00  1.0000000E-01  1.0294768E+02 -1.2036209E-01 -2.0348854E+04
 9.3000000E+00  1.0000000E-01  1.0318072E+02 -1.1268237E-01 -2.0316227E+04
 9.5000000E+00  1.0000000E-01  1.0339388E+02 -1.0047144E-01 -2.0273629E+04
 9.7000000E+00  1.0000000E-01  1.0357801E+02 -8.3658325E-02 -2.0219577E+04
 9.9000000E+00  1.0000000E-01  1.0372419E+02 -6.2522833E-02 -2.0152690E+04
 1.0100000E+01  1.0000000E-01  1.0382444E+02 -3.7726622E-02 -2.0071792E+04
 1.0300000E+01  1.0000000E-01  1.0387246E+02 -1.0292271E-02 -1.9976008E+04
 1.0500000E+01  1.0000000E-01  1.0386427E+02  1.8474950E-02 -1.9864851E+04
 1.0700000E+01  1.0000000E-01  1.0379868E+02  4.7114766E-02 -1.9738271E+04
 1.0900000E+01  1.0000000E-01  1.0367740E+02  7.4168445E-02 -1.9596666E+04
 1.1100000E+01  1.0000000E-01  1.0350490E+02  9.8335762E-02 -1.9440860E+04
 1.1300000E+01  1.0000000E-01  1.0328796E+02  1.1860370E-01 -1.9272030E+04
 1.1500000E+01  1.0000000E-01  1.0303503E+02  1.3432580E-01 -1.9091618E+04
 1.1700000E+01  1.0000000E-01  1.0275546E+02  1.4524376E-01 -1.8901221E+04
 1.1900000E+01  1.0000000E-01  1.0245876E+02  1.5145616E-01 -1.8702488E+04
 1.2100000E+01  1.0000000E-01  1.0215395E+02  1.5334903E-01 -1.8497030E+04
 1.2300000E+01  1.0000000E-01  1.0184910E+02  1.5150708E-01 -1.8286348E+04
 1.2500000E+01  1.0000000E-01  1.0155097E+02  1.4662308E-01 -1.8071780E+04
 1.2700000E+01  1.0000000E-01  1.0126492E+02  1.3941846E-01 -1.7854485E+04
 1.2900000E+01  1.0000000E-01  1.0099492E+02  1.3058214E-01 -1.7635426E+04
 1.3100000E+01  1.0000000E-01  1.0074361E+02  1.2072958E-01 -1.7415384E+04
 1.3300000E+01  1.0000000E-01  1.0051250E+02  1.1038059E-01 -1.7194968E+04
 1.3500000E+01  1.0000000E-01  1.0030217E+02  9.9951895E-02 -1.6974642E+04
 1.3700000E+01  1.0000000E-01  1.0011246E+02  8.9760513E-02 -1.6754743E+04
 1.3900000E+01  1.0000000E-01  9.9942663E+01  8.0033744E-02 -1.6535508E+04
 1.4100000E+01  1.0000000E-01  9.9791707E+01  7.0922533E-02 -1.6317091E+04
 1.4300000E+01  1.0000000E-01  9.9658269E+01  6.2515838E-02 -1.6099584E+04
 1.4500000E+01  1.0000000E-01  9.9540898E+01  5.4854396E-02 -1.5883028E+04
 1.4700000E+01  1.0000000E-01  9.9438101E+01  4.7943020E-02 -1.5667434E+04
 1.4900000E+01  1.0000000E-01  9.9348397E+01  4.1760993E-02 -1.5452785E+04
 1.5100000E+01  1.0000000E-01  9.9270366E+01  3.6270500E-02 -1.5239046E+04
 1.5300000E+01  1.0000000E-01  9.9202672E+01  3.1423217E-02 -1.5026173E+04
 1.5500000E+01  1.0000000E-01  9.9144083E+01  2.7165282E-02 -1.4814115E+04
 1.5700000E+01  1.0000000E-01  9.9093477E+01  2.3440927E-02 -1.4602817E+04
 1.5900000E+01  1.0000000E-01  9.9049841E+01  2.0195008E-02 -1.4392223E+04
 1.6100000E+01  1.0000000E-01  9.9012271E+01  1.7374707E-02 -1.4182281E+04
 1.6300000E+01  1.0000000E-01  9.8979966E+01  1.4930577E-02 -1.3972936E+04
 1.6500000E+01  1.0000000E-01  9.8952218E+01  1.2817124E-02 -1.3764140E+04
 1.6700000E+01  1.0000000E-01  9.8928408E+01  1.0993052E-02 -1.3555846E+04
 1.6900000E+01  1.0000000E-01  9.8907994E+01  9.4212676E-03 -1.3348010E+04
 1.7100000E+01  1.0000000E-01  9.8890504E+01  8.0687367E-03 -1.3140592E+04
 1.7300000E+01  1.0000000E-01  9.8875529E+01  6.9062436E-03 -1.2933555E+04
 1.7500000E+01  1.0000000E-01  9.8862715E+01  5.9080947E-03 -1.2726866E+04
 1.7700000E+01  1.0000000E-01  9.8851755E+01  5.0517998E-03 -1.2520494E+04
 1.7900000E+01  1.0000000E-01  9.8842385E+01  4.3177491E-03 -1.2314410E+04
 1.8100000E+01  1.0000000E-01  9.8834379E+01  3.6888989E-03 -1.2108589E+04
 1.8300000E+01  1.0000000E-01  9.8827539E+01  3.1504767E-03 -1.1903008E+04
 1.8500000E+01  1.0000000E-01  9.8821699E+01  2.6897070E-03 -1.1697645E+04
 1.8700000E+01  1.0000000E-01  9.8816714E+01  2.2955625E-03 -1.1492482E+04
 1.8900000E+01  1.0000000E-01  9.8812460E+01  1.9585405E-03 -1.1287501E+04
 1.9100000E+01  1.0000000E-01  9.8808831E+01  1.6704632E-03 -1.1082686E+04
 1.9300000E+01  1.0000000E-01  9.8805736E+01  1.4243008E-03 -1.0878023E+04
 1.9500000E+01  1.0000000E-01  9.8803098E+01  1.2140167E-03 -1.0673499E+04
 1.9700000E+01  1.0000000E-01  9.8800849E+01  1.0344308E-03 -1.0469102E+04
 1.9900000E+01  1.0000000E-01  9.8798934E+01  8.8110199E-04 -1.0264821E+04
 2.0100000E+01  1.0000000E-01  9.8797302E+01  7.5022438E-04 -1.0060647E+04
 2.0300000E+01  1.0000000E-01  9.8795913E+01  6.3853820E-04 -9.8565700E+03
 2.0500000E+01  1.0000000E-01  9.8794732E+01  5.4325286E-04 -9.6525825E+03
 2.0700000E+01  1.0000000E-01  9.8793726E+01  4.6198055E-04 -9.4486769E+03
 2.0900000E+01  1.0000000E-01  9.8792872E+01  3.9267825E-04 -9.2448466E+03
 2.1100000E+01  1.0000000E-01  9.8792146E+01  3.3359882E-04 -9.0410853E+03
 2.1300000E+01  1.0000000E-01  9.8791529E+01  2.8324827E-04 -8.8373874E+03
 2.1500000E+01  1.0000000E-01  9.8791005E+01  2.4034973E-04 -8.6337477E+03
 2.1700000E+01  1.0000000E-01  9.8790561E+01  2.0381181E-04 -8.4301616E+03
 2.1900000E+01  1.0000000E-01  9.8790184E+01  1.7270187E-04 -8.2266246E+03
 2.2100000E+01  1.0000000E-01  9.8789865E+01  1.4622319E-04 -8.0231329E+03
 2.2300000E+01  1.0000000E-01  9.8789596E+01  1.2369527E-04 -7.8196828E+03
 2.2500000E+01  1.0000000E-01  9.8789367E+01  1.0453678E-04 -7.6162709E+03
 2.2700000E+01  1.0000000E-01  9.8789175E+01  8.8251324E-05 -7.4128944E+03
 2.2900000E+01  1.0000000E-01  9.8789012E+01  7.4415142E-05 -7.2095503E+03
 2.3100000E+01  1.0000000E-01  9.8788875E+01  6.2666474E-05 -7.0062361E+03
 2.3300000E+01  1.0000000E-01  9.8788759E+01  5.2696397E-05 -6.8029494E+03
 2.3500000E+01  1.0000000E-01  9.8788662E+01  4.4241376E-05 -6.5996880E+03
 2.3700000E+01  1.0000000E-01  9.8788581E+01  3.7076427E-05 -6.3964501E+03
 2.3900000E+01  1.0000000E-01  9.8788513E+01  3.1009821E-05 -6.1932335E+03
 2.4100000E+01  1.0000000E-01  9.8788456E+01  2.5877794E-05 -5.9900368E+03
 2.4300000E+01  1.0000000E-01  9.8788409E+01  2.1540917E-05 -5.7868584E+03
 2.4500000E+01  1.0000000E-01  9.8788369E+01  1.7880124E-05 -5.5836967E+03
 2.4700000E+01  1.0000000E-01  9.8788337E+01  1.4793950E-05 -5.3805505E+03
 2.4900000E+01  1.0000000E-01  9.8788310E+01  1.2195954E-05 -5.1774186E+03
 2.5100000E+01  1.0000000E-01  9.8788287E+01  1.0012363E-05 -4.9742997E+03
 2.5300000E+01  1.0000000E-01  9.8788269E+01  8.1805674E-06 -4.7711930E+03
 2.5500000E+01  1.0000000E-01  9.8788254E+01  6.6471053E-06 -4.5680973E+03
 2.5700000E+01  1.0000000E-01  9.8788242E+01  5.3664126E-06 -4.3650118E+03
 2.5900000E+01  1.0000000E-01  9.8788233E+01  4.2998392E-06 -4.1619357E+03
 2.6100000E+01  1.0000000E-01  9.8788225E+01  3.4143512E-06 -3.9588682E+03
 2.6300000E+01  1.0000000E-01  9.8788219E+01  2.6821238E-06 -3.7558086E+03
 2.6500000E+01  1.0000000E-01  9.8788214E+01  2.0793751E-06 -3.5527562E+03
 2.6700000E+01  1.0000000E-01  9.8788211E+01  1.5858113E-06 -3.3497105E+03
 2.6900000E+01  1.0000000E-01  9.8788208E+01  1.1842563E-06 -3.1466707E+03
 2.7100000E+01  1.0000000E-01  9.8788206E+01  8.6016608E-07 -2.9436365E+03
 2.7300000E+01  1.0000000E-01  9.8788204E+01  6.0140448E-07 -2.7406072E+03
 2.7500000E+01  1.0000000E-01  9.8788203E+01  3.9733238E-07 -2.5375825E+03
 2.7700000E+01  1.0000000E-01  9.8788203E+01  2.3893660E-07 -2.3345619E+03
 2.7900000E+01  1.0000000E-01  9.8788202E+01  1.1882311E-07 -2.1315450E+03
 2.8100000E+01  1.0000000E-01  9.8788202E+01  3.0575129E-08 -1.9285313E+03
 2.8300000E+01  1.0000000E-01  9.8788202E+01 -3.1264515E-08 -1.7255205E+03
 2.8500000E+01  1.0000000E-01  9.8788202E+01 -7.1305692E-08 -1.5225123E+03
 2.8700000E+01  1.0000000E-01  9.8788202E+01 -9.3442122E-08 -1.3195063E+03
 2.8900000E+01  1.0000000E-01  9.8788203E+01 -1.0119148E-07 -1.1165022E+03
 2.9100000E+01  1.0000000E-01  9.8788203E+01 -9.7343490E-08 -9.1349969E+02
 2.9300000E+01  1.0000000E-01  9.8788203E+01 -8.4500478E-08 -7.1049845E+02
 2.9500000E+01  1.0000000E-01  9.8788203E+01 -6.5015467E-08 -5.0749822E+02
 2.9700000E+01  1.0000000E-01  9.8788203E+01 -4.0826953E-08 -3.0449871E+02
 2.9900000E+01  1.0000000E-01  9.8788203E+01 -1.3927109E-08 -1.0149962E+02
 1.0000000E-01  3.0000000E-01  1.0000062E+02  2.6251991E-03 -2.0296403E+04
 3.0000000E-01  3.0000000E-01  1.0000124E+02  1.3469126E-03 -2.0298470E+04
 5.0000000E-01  3.0000000E-01  1.0000115E+02  6.6612371E-04 -2.0300628E+04
 7.0000000E-01  3.0000000E-01  1.0000102E+02  2.5993781E-04 -2.0302575E+04
 9.0000000E-01  3.0000000E-01  1.0000100E+02 -5.1968026E-05 -2.0304332E+04
 1.1000000E+00  3.0000000E-01  1.0000114E+02 -3.4743201E-04 -2.0305963E+04
 1.3000000E+00  3.0000000E-01  1.0000147E+02 -6.6482048E-04 -2.0307522E+04
 1.5000000E+00  3.0000000E-01  1.0000201E+02 -1.0272179E-03 -2.0309053E+04
 1.7000000E+00  3.0000000E-01  1.0000280E+02 -1.4520680E-03 -2.0310586E+04
 1.9000000E+00  3.0000000E-01  1.0000390E+02 -1.9553496E-03 -2.0312144E+04
 2.1000000E+00  3.0000000E-01  1.0000536E+02 -2.5536099E-03 -2.0313748E+04
 2.3000000E+00  3.0000000E-01  1.0000724E+02 -3.2651255E-03 -2.0315412E+04
 2.5000000E+00  3.0000000E-01  1.0000964E+02 -4.1107077E-03 -2.0317151E+04
 2.7000000E+00  3.0000000E-01  1.0001263E+02 -5.1143741E-03 -2.0318978E+04
 2.9000000E+00  3.0000000E-01  1.0001635E+02 -6.3039876E-03 -2.0320903E+04
 3.1000000E+00  3.0000000E-01  1.0002091E+02 -7.7119157E-03 -2.0322939E+04
 3.3000000E+00  3.0000000E-01  1.0002649E+02 -9.3757324E-03 -2.0325097E+04
 3.5000000E+00  3.0000000E-01  1.0003325E+02 -1.1338977E-02 -2.0327388E+04
 3.7000000E+00  3.0000000E-01  1.0004141E+02 -1.3651971E-02 -2.0329822E+04
 3.9000000E+00  3.0000000E-01  1.0005122E+02 -1.6372683E-02 -2.0332412E+04
 4.1000000E+00  3.0000000E-01  1.0006297E+02 -1.9567629E-02 -2.0335169E+04
 4.3000000E+00  3.0000000E-01  1.0007700E+02 -2.3312767E-02 -2.0338104E+04
 4.5000000E+00  3.0000000E-01  1.0009370E+02 -2.7694343E-02 -2.0341229E+04
 4.7000000E+00  3.0000000E-01  1.0011351E+02 -3.2809603E-02 -2.0344555E+04
 4.9000000E+00  3.0000000E-01  1.0013697E+02 -3.8767262E-02 -2.0348093E+04
 5.1000000E+00  3.0000000E-01  1.0016467E+02 -4.5687574E-02 -2.0351850E+04
 5.3000000E+00  3.0000000E-01  1.0019728E+02 -5.3701783E-02 -2.0355836E+04
 5.5000000E+00  3.0000000E-01  1.0023558E+02 -6.2950675E-02 -2.0360054E+04
 5.7000000E+00  3.0000000E-01  1.0028045E+02 -7.3581841E-02 -2.0364504E+04
 5.9000000E+00  3.0000000E-01  1.0033285E+02 -8.5745200E-02 -2.0369181E+04
 6.1000000E+00  3.0000000E-01  1.0039386E+02 -9.9586170E-02 -2.0374068E+04
 6.3000000E+00  3.0000000E-01  1.0046464E+02 -1.1523580E-01 -2.0379141E+04
 6.5000000E+00  3.0000000E-01  1.0054647E+02 -1.3279711E-01 -2.0384354E+04
 6.7000000E+00  3.0000000E-01  1.0064066E+02 -1.5232673E-01 -2.0389645E+04
 6.9000000E+00  3.0000000E-01  1.0074855E+02 -1.7381132E-01 -2.0394917E+04
 7.1000000E+00  3.0000000E-01  1.0087147E+02 -1.9713796E-01 -2.0400039E+04
 7.3000000E+00  3.0000000E-01  1.0101062E+02 -2.2205889E-01 -2.0404829E+04
 7.5000000E+00  3.0000000E-01  1.0116702E+02 -2.4815138E-01 -2.0409042E+04
 7.7000000E+00  3.0000000E-01  1.0134134E+02 -2.7477510E-01 -2.0412352E+04
 7.9000000E+00  3.0000000E-01  1.0153375E+02 -3.0103143E-01 -2.0414336E+04
 8.1000000E+00  3.0000000E-01  1.0174375E+02 -3.2573150E-01 -2.0414454E+04
 8.3000000E+00  3.0000000E-01  1.0196992E+02 -3.4738250E-01 -2.0412023E+04
 8.5000000E+00  3.0000000E-01  1.0220974E+02 -3.6420465E-01 -2.0406206E+04
 8.7000000E+00  3.0000000E-01  1.0245939E+02 -3.7419195E-01 -2.0395992E+04
 8.9000000E+00  3.0000000E-01  1.0271361E+02 -3.7522926E-01 -2.0380197E+04
 9.1000000E+00  3.0000000E-01  1.0296566E+02 -3.6527217E-01 -2.0357469E+04
 9.3000000E+00  3.0000000E-01  1.0320742E+02 -3.4258590E-01 -2.0326321E+04
 9.5000000E+00  3.0000000E-01  1.0342973E+02 -3.0602329E-01 -2.0285185E+04
 9.7000000E+00  3.0000000E-01  1.0362279E+02 -2.5530307E-01 -2.0232487E+04
 9.9000000E+00  3.0000000E-01  1.0377697E+02 -1.9123357E-01 -2.0166749E+04
 1.0100000E+01  3.0000000E-01  1.0388352E+02 -1.1582073E-01 -2.0086700E+04
 1.0300000E+01  3.0000000E-01  1.0393552E+02 -3.2210611E-02 -1.9991389E+04
 1.0500000E+01  3.0000000E-01  1.0392854E+02  5.5553221E-02 -1.9880280E+04
 1.0700000E+01  3.0000000E-01  1.0386123E+02  1.4293330E-01 -1.9753308E+04
 1.0900000E+01  3.0000000E-01  1.0373547E+02  2.2539636E-01 -1.9610901E+04
 1.1100000E+01  3.0000000E-01  1.0355617E+02  2.9891295E-01 -1.9453944E+04
 1.1300000E+01  3.0000000E-01  1.0333077E+02  3.6036457E-01 -1.9283704E+04
 1.1500000E+01  3.0000000E-01  1.0306847E+02  4.0779024E-01 -1.9101722E+04
 1.1700000E+01  3.0000000E-01  1.0277938E+02  4.4044628E-01 -1.8909696E+04
 1.1900000E+01  3.0000000E-01  1.0247363E+02  4.5869789E-01 -1.8709366E+04
 1.2100000E+01  3.0000000E-01  1.0216075E+02  4.6379197E-01 -1.8502413E+04
 1.2300000E+01  3.0000000E-01  1.0184910E+02  4.5757323E-01 -1.8290385E+04
 1.2500000E+01  3.0000000E-01  1.0154559E+02  4.4219951E-01 -1.8074651E+04
 1.2700000E+01  3.0000000E-01  1.0125557E+02  4.1989629E-01 -1.7856376E+04
 1.2900000E+01  3.0000000E-01  1.0098291E+02  3.9277124E-01 -1.7636521E+04
 1.3100000E+01  3.0000000E-01  1.0073007E+02  3.6269317E-01 -1.7415850E+04
 1.3300000E+01  3.0000000E-01  1.0049836E+02  3.3122878E-01 -1.7194954E+04
 1.3500000E+01  3.0000000E-01  1.0028818E+02  2.9962498E-01 -1.6974275E+04
 1.3700000E+01  3.0000000E-01  1.0009915E+02  2.6882287E-01 -1.6754127E+04
 1.3900000E+01  3.0000000E-01  9.9930428E+01  2.3949097E-01 -1.6534726E+04
 1.4100000E+01  3.0000000E-01  9.9780782E+01  2.1206779E-01 -1.6316209E+04
 1.4300000E+01  3.0000000E-01  9.9648784E+01  1.8680640E-01 -1.6098650E+04
 1.4500000E+01  3.0000000E-01  9.9532901E+01  1.6381676E-01 -1.5882081E+04
 1.4700000E+01  3.0000000E-01  9.9431577E+01  1.4310289E-01 -1.5666499E+04
 1.4900000E+01  3.0000000E-01  9.9343288E+01  1.2459422E-01 -1.5451880E+04
 1.5100000E+01  3.0000000E-01  9.9266586E+01  1.0817070E-01 -1.5238183E+04
 1.5300000E+01  3.0000000E-01  9.9200120E+01  9.3682388E-02 -1.5025360E+04
 1.5500000E+01  3.0000000E-01  9.9142650E+01  8.0964073E-02 -1.4813355E+04
 1.5700000E+01  3.0000000E-01  9.9093053E+01  6.9845901E-02 -1.4602111E+04
 1.5900000E+01  3.0000000E-01  9.9050318E+01  6.0160751E-02 -1.4391572E+04
 1.6100000E+01  3.0000000E-01  9.9013548E+01  5.1749106E-02 -1.4181682E+04
 1.6300000E+01  3.0000000E-01  9.8981947E+01  4.4462046E-02 -1.3972387E+04
 1.6500000E+01  3.0000000E-01  9.8954818E+01  3.8162845E-02 -1.3763637E+04
 1.6700000E+01  3.0000000E-01  9.8931548E+01  3.2727601E-02 -1.3555386E+04
 1.6900000E+01  3.0000000E-01  9.8911603E+01  2.8045176E-02 -1.3347591E+04
 1.7100000E+01  3.0000000E-01  9.8894522E+01  2.4016710E-02 -1.3140210E+04
 1.7300000E+01  3.0000000E-01  9.8879900E+01  2.0554847E-02 -1.2933207E+04
 1.7500000E+01  3.0000000E-01  9.8867391E+01  1.7582824E-02 -1.2726549E+04
 1.7700000E+01  3.0000000E-01  9.8856694E+01  1.5033493E-02 -1.2520205E+04
 1.7900000E+01  3.0000000E-01  9.8847552E+01  1.2848335E-02 -1.2314146E+04
 1.8100000E+01  3.0000000E-01  9.8839740E+01  1.0976515E-02 -1.2108349E+04
 1.8300000E+01  3.0000000E-01  9.8833068E+01  9.3739883E-03 -1.1902789E+04
 1.8500000E+01  3.0000000E-01  9.8827372E+01  8.0026755E-03 -1.1697445E+04
 1.8700000E+01  3.0000000E-01  9.8822510E+01  6.8297186E-03 -1.1492300E+04
 1.8900000E+01  3.0000000E-01  9.8818362E+01  5.8268084E-03 -1.1287335E+04
 1.9100000E+01  3.0000000E-01  9.8814823E+01  4.9695871E-03 -1.1082534E+04
 1.9300000E+01  3.0000000E-01  9.8811806E+01  4.2371205E-03 -1.0877884E+04
 1.9500000E+01  3.0000000E-01  9.8809234E+01  3.6114338E-03 -1.0673372E+04
 1.9700000E+01  3.0000000E-01  9.8807043E+01  3.0771056E-03 -1.0468986E+04
 1.9900000E+01  3.0000000E-01  9.8805176E+01  2.6209147E-03 -1.0264715E+04
 2.0100000E+01  3.0000000E-01  9.8803586E+01  2.2315325E-03 -1.0060549E+04
 2.0300000E+01  3.0000000E-01  9.8802233E+01  1.8992569E-03 -9.8564805E+03
 2.0500000E+01  3.0000000E-01  9.8801081E+01  1.6157829E-03 -9.6525004E+03
 2.0700000E+01  3.0000000E-01  9.8800102E+01  1.3740036E-03 -9.4486016E+03
 2.0900000E+01  3.0000000E-01  9.8799269E+01  1.1678393E-03 -9.2447775E+03
 2.1100000E+01  3.0000000E-01  9.8798562E+01  9.9209082E-04 -9.0410218E+03
 2.1300000E+01  3.0000000E-01  9.8797961E+01  8.4231294E-04 -8.8373291E+03
 2.1500000E+01  3.0000000E-01  9.8797452E+01  7.1470585E-04 -8.6336941E+03
 2.1700000E+01  3.0000000E-01  9.8797019E+01  6.0602213E-04 -8.4301123E+03
 2.1900000E+01  3.0000000E-01  9.8796653E+01  5.1348697E-04 -8.2265793E+03
 2.2100000E+01  3.0000000E-01  9.8796342E+01  4.3472978E-04 -8.0230912E+03
 2.2300000E+01  3.0000000E-01  9.8796080E+01  3.6772565E-04 -7.8196444E+03
 2.2500000E+01  3.0000000E-01  9.8795858E+01  3.1074515E-04 -7.6162357E+03
 2.2700000E+01  3.0000000E-01  9.8795670E+01  2.6231146E-04 -7.4128619E+03
 2.2900000E+01  3.0000000E-01  9.8795512E+01  2.2116371E-04 -7.2095204E+03
 2.3100000E+01  3.0000000E-01  9.8795379E+01  1.8622548E-04 -7.0062086E+03
 2.3300000E+01  3.0000000E-01  9.8795267E+01  1.5657797E-04 -6.8029240E+03
 2.3500000E+01  3.0000000E-01  9.8795173E+01  1.3143708E-04 -6.5996647E+03
 2.3700000E+01  3.0000000E-01  9.8795094E+01  1.1013373E-04 -6.3964285E+03
 2.3900000E+01  3.0000000E-01  9.8795028E+01  9.2097158E-05 -6.1932137E+03
 2.4100000E+01  3.0000000E-01  9.8794972E+01  7.6840480E-05 -5.9900186E+03
 2.4300000E+01  3.0000000E-01  9.8794926E+01  6.3948514E-05 -5.7868416E+03
 2.4500000E+01  3.0000000E-01  9.8794888E+01  5.3067230E-05 -5.5836812E+03
 2.4700000E+01  3.0000000E-01  9.8794857E+01  4.3894834E-05 -5.3805363E+03
 2.4900000E+01  3.0000000E-01  9.8794831E+01  3.6174133E-05 -5.1774055E+03
 2.5100000E+01  3.0000000E-01  9.8794809E+01  2.9685978E-05 -4.9742877E+03
 2.5300000E+01  3.0000000E-01  9.8794792E+01  2.4243754E-05 -4.7711819E+03
 2.5500000E+01  3.0000000E-01  9.8794777E+01  1.9688526E-05 -4.5680871E+03
 2.5700000E+01  3.0000000E-01  9.8794766E+01  1.5884993E-05 -4.3650024E+03
 2.5900000E+01  3.0000000E-01  9.8794757E+01  1.2718048E-05 -4.1619271E+03
 2.6100000E+01  3.0000000E-01  9.8794749E+01  1.0089766E-05 -3.9588603E+03
 2.6300000E+01  3.0000000E-01  9.8794743E+01  7.9169464E-06 -3.7558014E+03
 2.6500000E+01  3.0000000E-01  9.8794739E+01  6.1288551E-06 -3.5527496E+03
 2.6700000E+01  3.0000000E-01  9.8794735E+01  4.6653784E-06 -3.3497044E+03
 2.6900000E+01  3.0000000E-01  9.8794733E+01  3.4754894E-06 -3.1466652E+03
 2.7100000E+01  3.0000000E-01  9.8794731E+01  2.5159060E-06 -2.9436315E+03
 2.7300000E+01  3.0000000E-01  9.8794730E+01  1.7499468E-06 -2.7406027E+03
 2.7500000E+01  3.0000000E-01  9.8794729E+01  1.1464197E-06 -2.5375785E+03
 2.7700000E+01  3.0000000E-01  9.8794728E+01  6.7887110E-07 -2.3345582E+03
 2.7900000E+01  3.0000000E-01  9.8794728E+01  3.2492607E-07 -2.1315417E+03
 2.8100000E+01  3.0000000E-01  9.8794728E+01  6.5579017E-08 -1.9285284E+03
 2.8300000E+01  3.0000000E-01  9.8794728E+01 -1.1531738E-07 -1.7255180E+03
 2.8500000E+01  3.0000000E-01  9.8794728E+01 -2.3149378E-07 -1.5225101E+03
 2.8700000E+01  3.0000000E-01  9.8794728E+01 -2.9466659E-07 -1.3195044E+03
 2.8900000E+01  3.0000000E-01  9.8794728E+01 -3.1491860E-07 -1.1165006E+03
 2.9100000E+01  3.0000000E-01  9.8794729E+01 -3.0091487E-07 -9.1349841E+02
 2.9300000E+01  3.0000000E-01  9.8794729E+01 -2.6025423E-07 -7.1049747E+02
 2.9500000E+01  3.0000000E-01  9.8794729E+01 -1.9967811E-07 -5.0749752E+02
 2.9700000E+01  3.0000000E-01  9.8794729E+01 -1.2523067E-07 -3.0449829E+02
 2.9900000E+01  3.0000000E-01  9.8794729E+01 -4.2700375E-08 -1.0149947E+02
 1.0000000E-01  5.0000000E-01  1.0000025E+02  1.7506380E-03 -2.0299244E+04
 3.0000000E-01  5.0000000E-01  1.0000058E+02  1.2804097E-03 -2.0300264E+04
 5.0000000E-01  5.0000000E-01  1.0000063E+02  7.6647160E-04 -2.0301677E+04
 7.0000000E-01  5.0000000E-01  1.0000060E+02  3.1814475E-04 -2.0303181E+04
 9.0000000E-01  5.0000000E-01  1.0000062E+02 -1.0803576E-04 -2.0304676E+04
 1.1000000E+00  5.0000000E-01  1.0000074E+02 -5.5574528E-04 -2.0306147E+04
 1.3000000E+00  5.0000000E-01  1.0000102E+02 -1.0583990E-03 -2.0307602E+04
 1.5000000E+00  5.0000000E-01  1.0000149E+02 -1.6427718E-03 -2.0309061E+04
 1.7000000E+00  5.0000000E-01  1.0000219E+02 -2.3330069E-03 -2.0310541E+04
 1.9000000E+00  5.0000000E-01  1.0000317E+02 -3.1533847E-03 -2.0312059E+04
 2.1000000E+00  5.0000000E-01  1.0000449E+02 -4.1301612E-03 -2.0313629E+04
 2.3000000E+00  5.0000000E-01  1.0000621E+02 -5.2928908E-03 -2.0315265E+04
 2.5000000E+00  5.0000000E-01  1.0000841E+02 -6.6755088E-03 -2.0316978E+04
 2.7000000E+00  5.0000000E-01  1.0001118E+02 -8.3173318E-03 -2.0318780E+04
 2.9000000E+00  5.0000000E-01  1.0001463E+02 -1.0264066E-02 -2.0320683E+04
 3.1000000E+00  5.0000000E-01  1.0001888E+02 -1.2568877E-02 -2.0322697E+04
 3.3000000E+00  5.0000000E-01  1.0002408E+02 -1.5293546E-02 -2.0324832E+04
 3.5000000E+00  5.0000000E-01  1.0003041E+02 -1.8509735E-02 -2.0327101E+04
 3.7000000E+00  5.0000000E-01  1.0003807E+02 -2.2300350E-02 -2.0329513E+04
 3.9000000E+00  5.0000000E-01  1.0004729E+02 -2.6761012E-02 -2.0332080E+04
 4.1000000E+00  5.0000000E-01  1.0005836E+02 -3.2001587E-02 -2.0334815E+04
 4.3000000E+00  5.0000000E-01  1.0007160E+02 -3.8147740E-02 -2.0337728E+04
 4.5000000E+00  5.0000000E-01  1.0008739E+02 -4.5342429E-02 -2.0340832E+04
 4.7000000E+00  5.0000000E-01  1.0010616E+02 -5.3747217E-02 -2.0344138E+04
 4.9000000E+00  5.0000000E-01  1.0012841E+02 -6.3543233E-02 -2.0347659E+04
 5.1000000E+00  5.0000000E-01  1.0015474E+02 -7.4931521E-02 -2.0351405E+04
 5.3000000E+00  5.0000000E-01  1.0018580E+02 -8.8132452E-02 -2.0355386E+04
 5.5000000E+00  5.0000000E-01  1.0022236E+02 -1.0338372E-01 -2.0359608E+04
 5.7000000E+00  5.0000000E-01  1.0026528E+02 -1.2093633E-01 -2.0364077E+04
 5.9000000E+00  5.0000000E-01  1.0031554E+02 -1.4104775E-01 -2.0368791E+04
 6.1000000E+00  5.0000000E-01  1.0037422E+02 -1.6397135E-01 -2.0373742E+04
 6.3000000E+00  5.0000000E-01  1.0044252E+02 -1.8994076E-01 -2.0378914E+04
 6.5000000E+00  5.0000000E-01  1.0052175E+02 -2.1914804E-01 -2.0384275E+04
 6.7000000E+00  5.0000000E-01  1.0061330E+02 -2.5171394E-01 -2.0389774E+04
 6.9000000E+00  5.0000000E-01  1.0071863E+02 -2.8764896E-01 -2.0395337E+04
 7.1000000E+00  5.0000000E-01  1.0083922E+02 -3.2680411E-01 -2.0400854E+04
 7.3000000E+00  5.0000000E-01  1.0097649E+02 -3.6881096E-01 -2.0406172E+04
 7.5000000E+00  5.0000000E-01  1.0113170E+02 -4.1301210E-01 -2.0411075E+04
 7.7000000E+00  5.0000000E-01  1.0130585E+02 -4.5838526E-01 -2.0415277E+04
 7.9000000E+00  5.0000000E-01  1.0149948E+02 -5.0346793E-01 -2.0418390E+04
 8.1000000E+00  5.0000000E-01  1.0171249E+02 -5.4629329E-01 -2.0419912E+04
 8.3000000E+00  5.0000000E-01  1.0194385E+02 -5.8435411E-01 -2.0419194E+04
 8.5000000E+00  5.0000000E-01  1.0219142E+02 -6.1461598E-01 -2.0415417E+04
 8.7000000E+00  5.0000000E-01  1.0245159E+02 -6.3360535E-01 -2.0407573E+04
 8.9000000E+00  5.0000000E-01  1.0271915E+02 -6.3759722E-01 -2.0394448E+04
 9.1000000E+00  5.0000000E-01  1.0298712E+02 -6.2291949E-01 -2.0374627E+04
 9.3000000E+00  5.0000000E-01  1.0324678E+02 -5.8637337E-01 -2.0346517E+04
 9.5000000E+00  5.0000000E-01  1.0348798E+02 -5.2573957E-01 -2.0308397E+04
 9.7000000E+00  5.0000000E-01  1.0369963E+02 -4.4030284E-01 -2.0258508E+04
 9.9000000E+00  5.0000000E-01  1.0387052E+02 -3.3129200E-01 -2.0195167E+04
 1.0100000E+01  5.0000000E-01  1.0399031E+02 -2.0211488E-01 -2.0116900E+04
 1.0300000E+01  5.0000000E-01  1.0405069E+02 -5.8283622E-02 -2.0022590E+04
 1.0500000E+01  5.0000000E-01  1.0404628E+02  9.3016187E-02 -1.9911592E+04
 1.0700000E+01  5.0000000E-01  1.0397538E+02  2.4367166E-01 -1.9783817E+04
 1.0900000E+01  5.0000000E-01  1.0384023E+02  3.8557539E-01 -1.9639749E+04
 1.1100000E+01  5.0000000E-01  1.0364670E+02  5.1156134E-01 -1.9480408E+04
 1.1300000E+01  5.0000000E-01  1.0340366E+02  6.1615903E-01 -1.9307248E+04
 1.1500000E+01  5.0000000E-01  1.0312192E+02  6.9603299E-01 -1.9122028E+04
 1.1700000E+01  5.0000000E-01  1.0281315E+02  7.5006269E-01 -1.8926658E+04
 1.1900000E+01  5.0000000E-01  1.0248887E+02  7.7910703E-01 -1.8723063E+04
 1.2100000E+01  5.0000000E-01  1.0215958E+02  7.8555777E-01 -1.8513068E+04
 1.2300000E+01  5.0000000E-01  1.0183423E+02  7.7280431E-01 -1.8298321E+04
 1.2500000E+01  5.0000000E-01  1.0152000E+02  7.4471508E-01 -1.8080241E+04
 1.2700000E+01  5.0000000E-01  1.0122219E+02  7.0520514E-01 -1.7860009E+04
 1.2900000E+01  5.0000000E-01  1.0094439E+02  6.5792200E-01 -1.7638571E+04
 1.3100000E+01  5.0000000E-01  1.0068873E+02  6.0605104E-01 -1.7416660E+04
 1.3300000E+01  5.0000000E-01  1.0045607E+02  5.5222368E-01 -1.7194824E+04
 1.3500000E+01  5.0000000E-01  1.0024639E+02  4.9850301E-01 -1.6973457E+04
 1.3700000E+01  5.0000000E-01  1.0005894E+02  4.4642096E-01 -1.6752829E+04
 1.3900000E+01  5.0000000E-01  9.9892511E+01  3.9704481E-01 -1.6533113E+04
 1.4100000E+01  5.0000000E-01  9.9745615E+01  3.5105594E-01 -1.6314408E+04
 1.4300000E+01  5.0000000E-01  9.9616601E+01  3.0882939E-01 -1.6096759E+04
 1.4500000E+01  5.0000000E-01  9.9503771E+01  2.7050699E-01 -1.5880170E+04
 1.4700000E+01  5.0000000E-01  9.9405448E+01  2.3606076E-01 -1.5664619E+04
 1.4900000E+01  5.0000000E-01  9.9320028E+01  2.0534506E-01 -1.5450066E+04
 1.5100000E+01  5.0000000E-01  9.9246012E+01  1.7813811E-01 -1.5236458E+04
 1.5300000E+01  5.0000000E-01  9.9182019E+01  1.5417366E-01 -1.5023736E+04
 1.5500000E+01  5.0000000E-01  9.9126796E+01  1.3316453E-01 -1.4811840E+04
 1.5700000E+01  5.0000000E-01  9.9079220E+01  1.1481942E-01 -1.4600706E+04
 1.5900000E+01  5.0000000E-01  9.9038288E+01  9.8854333E-02 -1.4390275E+04
 1.6100000E+01  5.0000000E-01  9.9003114E+01  8.5000079E-02 -1.4180489E+04
 1.6300000E+01  5.0000000E-01  9.8972919E+01  7.3006650E-02 -1.3971294E+04
 1.6500000E+01  5.0000000E-01  9.8947021E+01  6.2645465E-02 -1.3762637E+04
 1.6700000E+01  5.0000000E-01  9.8924826E+01  5.3710062E-02 -1.3554473E+04
 1.6900000E+01  5.0000000E-01  9.8905817E+01  4.6015756E-02 -1.3346757E+04
 1.7100000E+01  5.0000000E-01  9.8889546E+01  3.9398619E-02 -1.3139450E+04
 1.7300000E+01  5.0000000E-01  9.8875627E+01  3.3714072E-02 -1.2932514E+04
 1.7500000E+01  5.0000000E-01  9.8863724E+01  2.8835257E-02 -1.2725918E+04
 1.7700000E+01  5.0000000E-01  9.8853550E+01  2.4651350E-02 -1.2519629E+04
 1.7900000E+01  5.0000000E-01  9.8844858E+01  2.1065871E-02 -1.2313622E+04
 1.8100000E+01  5.0000000E-01  9.8837433E+01  1.7995086E-02 -1.2107871E+04
 1.8300000E+01  5.0000000E-01  9.8831094E+01  1.5366497E-02 -1.1902353E+04
 1.8500000E+01  5.0000000E-01  9.8825683E+01  1.3117468E-02 -1.1697048E+04
 1.8700000E+01  5.0000000E-01  9.8821066E+01  1.1193982E-02 -1.1491937E+04
 1.8900000E+01  5.0000000E-01  9.8817127E+01  9.5495187E-03 -1.1287003E+04
 1.9100000E+01  5.0000000E-01  9.8813768E+01  8.1440685E-03 -1.1082231E+04
 1.9300000E+01  5.0000000E-01  9.8810905E+01  6.9432560E-03 -1.0877608E+04
 1.9500000E+01  5.0000000E-01  9.8808464E+01  5.9175739E-03 -1.0673119E+04
 1.9700000E+01  5.0000000E-01  9.8806385E+01  5.0417127E-03 -1.0468754E+04