VARIABLES = "X", "Y", "U", "V", "P"
ZONE I=   150, J=    40, K=1, F= POINT
 1.0000000E-01  1.0000000E-01  9.9999003E+01  9.9662509E-04 -2.0022725E+04
 3.0000000E-01  1.0000000E-01  9.9997597E+01  4.0944231E-04 -2.0027818E+04
 5.0000000E-01  1.0000000E-01  9.9997015E+01  1.7273857E-04 -2.0031029E+04
 7.0000000E-01  1.0000000E-01  9.9996793E+01  4.9168449E-05 -2.0033405E+04
 9.0000000E-01  1.0000000E-01  9.9996788E+01 -4.3790846E-05 -2.0035369E+04
 1.1000000E+00  1.0000000E-01  9.9996966E+01 -1.3472446E-04 -2.0037117E+04
 1.3000000E+00  1.0000000E-01  9.9997337E+01 -2.3578631E-04 -2.0038754E+04
 1.5000000E+00  1.0000000E-01  9.9997927E+01 -3.5384670E-04 -2.0040343E+04
 1.7000000E+00  1.0000000E-01  9.9998774E+01 -4.9414945E-04 -2.0041926E+04
 1.9000000E+00  1.0000000E-01  9.9999930E+01 -6.6167669E-04 -2.0043530E+04
 2.1000000E+00  1.0000000E-01  1.0000145E+02 -8.6175273E-04 -2.0045179E+04
 2.3000000E+00  1.0000000E-01  1.0000342E+02 -1.1003773E-03 -2.0046889E+04
 2.5000000E+00  1.0000000E-01  1.0000590E+02 -1.3844608E-03 -2.0048677E+04
 2.7000000E+00  1.0000000E-01  1.0000901E+02 -1.7220281E-03 -2.0050556E+04
 2.9000000E+00  1.0000000E-01  1.0001285E+02 -2.1224214E-03 -2.0052538E+04
 3.1000000E+00  1.0000000E-01  1.0001757E+02 -2.5965131E-03 -2.0054636E+04
 3.3000000E+00  1.0000000E-01  1.0002332E+02 -3.1569365E-03 -2.0056862E+04
 3.5000000E+00  1.0000000E-01  1.0003030E+02 -3.8183363E-03 -2.0059226E+04
 3.7000000E+00  1.0000000E-01  1.0003872E+02 -4.5976389E-03 -2.0061743E+04
 3.9000000E+00  1.0000000E-01  1.0004883E+02 -5.5143394E-03 -2.0064423E+04
 4.1000000E+00  1.0000000E-01  1.0006093E+02 -6.5907977E-03 -2.0067278E+04
 4.3000000E+00  1.0000000E-01  1.0007538E+02 -7.8525332E-03 -2.0070323E+04
 4.5000000E+00  1.0000000E-01  1.0009256E+02 -9.3284995E-03 -2.0073568E+04
 4.7000000E+00  1.0000000E-01  1.0011294E+02 -1.1051311E-02 -2.0077026E+04
 4.9000000E+00  1.0000000E-01  1.0013705E+02 -1.3057384E-02 -2.0080708E+04
 5.1000000E+00  1.0000000E-01  1.0016549E+02 -1.5386939E-02 -2.0084625E+04
 5.3000000E+00  1.0000000E-01  1.0019896E+02 -1.8083787E-02 -2.0088785E+04
 5.5000000E+00  1.0000000E-01  1.0023824E+02 -2.1194807E-02 -2.0093193E+04
 5.7000000E+00  1.0000000E-01  1.0028420E+02 -2.4768987E-02 -2.0097850E+04
 5.9000000E+00  1.0000000E-01  1.0033783E+02 -2.8855861E-02 -2.0102749E+04
 6.1000000E+00  1.0000000E-01  1.0040019E+02 -3.3503164E-02 -2.0107877E+04
 6.3000000E+00  1.0000000E-01  1.0047244E+02 -3.8753452E-02 -2.0113206E+04
 6.5000000E+00  1.0000000E-01  1.0055584E+02 -4.4639455E-02 -2.0118690E+04
 6.7000000E+00  1.0000000E-01  1.0065165E+02 -5.1177888E-02 -2.0124262E+04
 6.9000000E+00  1.0000000E-01  1.0076119E+02 -5.8361507E-02 -2.0129825E+04
 7.1000000E+00  1.0000000E-01  1.0088570E+02 -6.6149263E-02 -2.0135241E+04
 7.3000000E+00  1.0000000E-01  1.0102631E+02 -7.4454630E-02 -2.0140322E+04
 7.5000000E+00  1.0000000E-01  1.0118389E+02 -8.3132470E-02 -2.0144813E+04
 7.7000000E+00  1.0000000E-01  1.0135899E+02 -9.1965276E-02 -2.0148381E+04
 7.9000000E+00  1.0000000E-01  1.0155161E+02 -1.0065031E-01 -2.0150594E+04
 8.1000000E+00  1.0000000E-01  1.0176105E+02 -1.0878992E-01 -2.0150902E+04
 8.3000000E+00  1.0000000E-01  1.0198573E+02 -1.1588824E-01 -2.0148620E+04
 8.5000000E+00  1.0000000E-01  1.0222297E+02 -1.2135809E-01 -2.0142911E+04
 8.7000000E+00  1.0000000E-01  1.0246887E+02 -1.2454247E-01 -2.0132776E+04
 8.9000000E+00  1.0000000E-01  1.0271817E+02 -1.2475407E-01 -2.0117053E+04
 9.1000000E+00  1.0000000E-01  1.0296426E+02 -1.2133464E-01 -2.0094431E+04
 9.3000000E+00  1.0000000E-01  1.0319933E+02 -1.1373247E-01 -2.0063479E+04
 9.5000000E+00  1.0000000E-01  1.0341465E+02 -1.0159101E-01 -2.0022703E+04
 9.7000000E+00  1.0000000E-01  1.0360108E+02 -8.4836089E-02 -1.9970614E+04
 9.9000000E+00  1.0000000E-01  1.0374966E+02 -6.3744605E-02 -1.9905823E+04
 1.0100000E+01  1.0000000E-01  1.0385238E+02 -3.8975864E-02 -1.9827140E+04
 1.0300000E+01  1.0000000E-01  1.0390290E+02 -1.1550891E-02 -1.9733675E+04
 1.0500000E+01  1.0000000E-01  1.0389723E+02  1.7225657E-02 -1.9624920E+04
 1.0700000E+01  1.0000000E-01  1.0383411E+02  4.5893124E-02 -1.9500803E+04
 1.0900000E+01  1.0000000E-01  1.0371523E+02  7.2991460E-02 -1.9361702E+04
 1.1100000E+01  1.0000000E-01  1.0354502E+02  9.7218311E-02 -1.9208420E+04
 1.1300000E+01  1.0000000E-01  1.0333024E+02  1.1755792E-01 -1.9042117E+04
 1.1500000E+01  1.0000000E-01  1.0307932E+02  1.3336073E-01 -1.8864220E+04
 1.1700000E+01  1.0000000E-01  1.0280160E+02  1.4436520E-01 -1.8676316E+04
 1.1900000E+01  1.0000000E-01  1.0250656E+02  1.5066677E-01 -1.8480048E+04
 1.2100000E+01  1.0000000E-01  1.0220325E+02  1.5264864E-01 -1.8277025E+04
 1.2300000E+01  1.0000000E-01  1.0189971E+02  1.5089314E-01 -1.8068746E+04
 1.2500000E+01  1.0000000E-01  1.0160272E+02  1.4609114E-01 -1.7856554E+04
 1.2700000E+01  1.0000000E-01  1.0131767E+02  1.3896274E-01 -1.7641609E+04
 1.2900000E+01  1.0000000E-01  1.0104851E+02  1.3019599E-01 -1.7424880E+04
 1.3100000E+01  1.0000000E-01  1.0079791E+02  1.2040596E-01 -1.7207151E+04
 1.3300000E+01  1.0000000E-01  1.0056739E+02  1.1011237E-01 -1.6989038E+04
 1.3500000E+01  1.0000000E-01  1.0035754E+02  9.9732147E-02 -1.6771007E+04
 1.3700000E+01  1.0000000E-01  1.0016823E+02  8.9582710E-02 -1.6553401E+04
 1.3900000E+01  1.0000000E-01  9.9998755E+01  7.9891869E-02 -1.6336458E+04
 1.4100000E+01  1.0000000E-01  9.9848052E+01  7.0811148E-02 -1.6120336E+04
 1.4300000E+01  1.0000000E-01  9.9714811E+01  6.2430101E-02 -1.5905127E+04
 1.4500000E+01  1.0000000E-01  9.9597591E+01  5.4790056E-02 -1.5690878E+04
 1.4700000E+01  1.0000000E-01  9.9494904E+01  4.7896387E-02 -1.5477598E+04
 1.4900000E+01  1.0000000E-01  9.9405279E+01  4.1728893E-02 -1.5265271E+04
 1.5100000E+01  1.0000000E-01  9.9327300E+01  3.6250226E-02 -1.5053863E+04
 1.5300000E+01  1.0000000E-01  9.9259637E+01  3.1412478E-02 -1.4843332E+04
 1.5500000E+01  1.0000000E-01  9.9201062E+01  2.7162152E-02 -1.4633624E+04
 1.5700000E+01  1.0000000E-01  9.9150457E+01  2.3443795E-02 -1.4424687E+04
 1.5900000E+01  1.0000000E-01  9.9106810E+01  2.0202538E-02 -1.4216464E+04
 1.6100000E+01  1.0000000E-01  9.9069222E+01  1.7385792E-02 -1.4008901E+04
 1.6300000E+01  1.0000000E-01  9.9036892E+01  1.4944310E-02 -1.3801945E+04
 1.6500000E+01  1.0000000E-01  9.9009115E+01  1.2832764E-02 -1.3595546E+04
 1.6700000E+01  1.0000000E-01  9.8985272E+01  1.1009996E-02 -1.3389657E+04
 1.6900000E+01  1.0000000E-01  9.8964823E+01  9.4390294E-03 -1.3184234E+04
 1.7100000E+01  1.0000000E-01  9.8947297E+01  8.0869284E-03 -1.2979236E+04
 1.7300000E+01  1.0000000E-01  9.8932285E+01  6.9245571E-03 -1.2774627E+04
 1.7500000E+01  1.0000000E-01  9.8919435E+01  5.9262883E-03 -1.2570372E+04
 1.7700000E+01  1.0000000E-01  9.8908439E+01  5.0696865E-03 -1.2366440E+04
 1.7900000E+01  1.0000000E-01  9.8899034E+01  4.3351868E-03 -1.2162802E+04
 1.8100000E+01  1.0000000E-01  9.8890993E+01  3.7057821E-03 -1.1959433E+04
 1.8300000E+01  1.0000000E-01  9.8884120E+01  3.1667298E-03 -1.1756308E+04
 1.8500000E+01  1.0000000E-01  9.8878248E+01  2.7052784E-03 -1.1553406E+04
 1.8700000E+01  1.0000000E-01  9.8873233E+01  2.3104200E-03 -1.1350709E+04
 1.8900000E+01  1.0000000E-01  9.8868949E+01  1.9726672E-03 -1.1148197E+04
 1.9100000E+01  1.0000000E-01  9.8865293E+01  1.6838546E-03 -1.0945856E+04
 1.9300000E+01  1.0000000E-01  9.8862172E+01  1.4369620E-03 -1.0743670E+04
 1.9500000E+01  1.0000000E-01  9.8859509E+01  1.2259599E-03 -1.0541626E+04
 1.9700000E+01  1.0000000E-01  9.8857238E+01  1.0456742E-03 -1.0339712E+04
 1.9900000E+01  1.0000000E-01  9.8855300E+01  8.9166761E-04 -1.0137918E+04
 2.0100000E+01  1.0000000E-01  9.8853648E+01  7.6013738E-04 -9.9362321E+03
 2.0300000E+01  1.0000000E-01  9.8852240E+01  6.4782600E-04 -9.7346465E+03
 2.0500000E+01  1.0000000E-01  9.8851041E+01  5.5194414E-04 -9.5331524E+03
 2.0700000E+01  1.0000000E-01  9.8850019E+01  4.7010440E-04 -9.3317424E+03
 2.0900000E+01  1.0000000E-01  9.8849148E+01  4.0026402E-04 -9.1304096E+03
 2.1100000E+01  1.0000000E-01  9.8848407E+01  3.4067559E-04 -8.9291477E+03
 2.1300000E+01  1.0000000E-01  9.8847777E+01  2.8984487E-04 -8.7279507E+03
 2.1500000E+01  1.0000000E-01  9.8847240E+01  2.4649411E-04 -8.5268136E+03
 2.1700000E+01  1.0000000E-01  9.8846784E+01  2.0953096E-04 -8.3257314E+03
 2.1900000E+01  1.0000000E-01  9.8846397E+01  1.7802191E-04 -8.1246997E+03
 2.2100000E+01  1.0000000E-01  9.8846068E+01  1.5116906E-04 -7.9237145E+03
 2.2300000E+01  1.0000000E-01  9.8845788E+01  1.2829072E-04 -7.7227721E+03
 2.2500000E+01  1.0000000E-01  9.8845551E+01  1.0880456E-04 -7.5218690E+03
 2.2700000E+01  1.0000000E-01  9.8845350E+01  9.2212913E-05 -7.3210021E+03
 2.2900000E+01  1.0000000E-01  9.8845180E+01  7.8090869E-05 -7.1201685E+03
 2.3100000E+01  1.0000000E-01  9.8845036E+01  6.6075488E-05 -6.9193656E+03
 2.3300000E+01  1.0000000E-01  9.8844914E+01  5.5856758E-05 -6.7185910E+03
 2.3500000E+01  1.0000000E-01  9.8844811E+01  4.7169918E-05 -6.5178425E+03
 2.3700000E+01  1.0000000E-01  9.8844724E+01  3.9789083E-05 -6.3171179E+03
 2.3900000E+01  1.0000000E-01  9.8844650E+01  3.3521563E-05 -6.1164155E+03
 2.4100000E+01  1.0000000E-01  9.8844589E+01  2.8202470E-05 -5.9157334E+03
 2.4300000E+01  1.0000000E-01  9.8844537E+01  2.3691420E-05 -5.7150701E+03
 2.4500000E+01  1.0000000E-01  9.8844493E+01  1.9868651E-05 -5.5144240E+03
 2.4700000E+01  1.0000000E-01  9.8844457E+01  1.6631683E-05 -5.3137939E+03
 2.4900000E+01  1.0000000E-01  9.8844426E+01  1.3893407E-05 -5.1131784E+03
 2.5100000E+01  1.0000000E-01  9.8844401E+01  1.1579370E-05 -4.9125764E+03
 2.5300000E+01  1.0000000E-01  9.8844380E+01  9.6260932E-06 -4.7119868E+03
 2.5500000E+01  1.0000000E-01  9.8844362E+01  7.9795535E-06 -4.5114086E+03
 2.5700000E+01  1.0000000E-01  9.8844347E+01  6.5935768E-06 -4.3108409E+03
 2.5900000E+01  1.0000000E-01  9.8844335E+01  5.4289091E-06 -4.1102828E+03
 2.6100000E+01  1.0000000E-01  9.8844325E+01  4.4520129E-06 -3.9097336E+03
 2.6300000E+01  1.0000000E-01  9.8844317E+01  3.6344254E-06 -3.7091926E+03
 2.6500000E+01  1.0000000E-01  9.8844311E+01  2.9519258E-06 -3.5086589E+03
 2.6700000E+01  1.0000000E-01  9.8844305E+01  2.3837728E-06 -3.3081321E+03
 2.6900000E+01  1.0000000E-01  9.8844301E+01  1.9125254E-06 -3.1076114E+03
 2.7100000E+01  1.0000000E-01  9.8844298E+01  1.5230669E-06 -2.9070964E+03
 2.7300000E+01  1.0000000E-01  9.8844295E+01  1.2027357E-06 -2.7065865E+03
 2.7500000E+01  1.0000000E-01  9.8844293E+01  9.4075873E-07 -2.5060813E+03
 2.7700000E+01  1.0000000E-01  9.8844291E+01  7.2776860E-07 -2.3055803E+03
 2.7900000E+01  1.0000000E-01  9.8844290E+01  5.5595132E-07 -2.1050830E+03
 2.8100000E+01  1.0000000E-01  9.8844289E+01  4.1864344E-07 -1.9045891E+03
 2.8300000E+01  1.0000000E-01  9.8844288E+01  3.1002715E-07 -1.7040982E+03
 2.8500000E+01  1.0000000E-01  9.8844288E+01  2.2524779E-07 -1.5036100E+03
 2.8700000E+01  1.0000000E-01  9.8844287E+01  1.6015024E-07 -1.3031240E+03
 2.8900000E+01  1.0000000E-01  9.8844287E+01  1.1100800E-07 -1.1026399E+03
 2.9100000E+01  1.0000000E-01  9.8844287E+01  7.4687509E-08 -9.0215750E+02
 2.9300000E+01  1.0000000E-01  9.8844287E+01  4.8345042E-08 -7.0167639E+02
 2.9500000E+01  1.0000000E-01  9.8844287E+01  2.9485761E-08 -5.0119628E+02
 2.9700000E+01  1.0000000E-01  9.8844287E+01  1.5918388E-08 -3.0071687E+02
 2.9900000E+01  1.0000000E-01  9.8844287E+01  5.3250112E-09 -1.0023785E+02
 1.0000000E-01  3.0000000E-01  1.0000035E+02  1.6413836E-03 -2.0027632E+04
 3.0000000E-01  3.0000000E-01  1.0000068E+02  8.3884188E-04 -2.0029701E+04
 5.0000000E-01  3.0000000E-01  1.0000060E+02  4.0483359E-04 -2.0031864E+04
 7.0000000E-01  3.0000000E-01  1.0000053E+02  1.1689356E-04 -2.0033818E+04
 9.0000000E-01  3.0000000E-01  1.0000055E+02 -1.3340113E-04 -2.0035584E+04
 1.1000000E+00  3.0000000E-01  1.0000072E+02 -3.9405134E-04 -2.0037227E+04
 1.3000000E+00  3.0000000E-01  1.0000107E+02 -6.9037021E-04 -2.0038802E+04
 1.5000000E+00  3.0000000E-01  1.0000162E+02 -1.0393123E-03 -2.0040350E+04
 1.7000000E+00  3.0000000E-01  1.0000242E+02 -1.4552437E-03 -2.0041904E+04
 1.9000000E+00  3.0000000E-01  1.0000351E+02 -1.9525074E-03 -2.0043486E+04
 2.1000000E+00  3.0000000E-01  1.0000497E+02 -2.5467438E-03 -2.0045117E+04
 2.3000000E+00  3.0000000E-01  1.0000684E+02 -3.2557170E-03 -2.0046812E+04
 2.5000000E+00  3.0000000E-01  1.0000923E+02 -4.0999533E-03 -2.0048587E+04
 2.7000000E+00  3.0000000E-01  1.0001222E+02 -5.1033261E-03 -2.0050453E+04
 2.9000000E+00  3.0000000E-01  1.0001593E+02 -6.2936493E-03 -2.0052423E+04
 3.1000000E+00  3.0000000E-01  1.0002049E+02 -7.7033098E-03 -2.0054509E+04
 3.3000000E+00  3.0000000E-01  1.0002605E+02 -9.3699575E-03 -2.0056723E+04
 3.5000000E+00  3.0000000E-01  1.0003281E+02 -1.1337257E-02 -2.0059076E+04
 3.7000000E+00  3.0000000E-01  1.0004097E+02 -1.3655701E-02 -2.0061580E+04
 3.9000000E+00  3.0000000E-01  1.0005079E+02 -1.6383478E-02 -2.0064248E+04
 4.1000000E+00  3.0000000E-01  1.0006255E+02 -1.9587376E-02 -2.0067092E+04
 4.3000000E+00  3.0000000E-01  1.0007659E+02 -2.3343679E-02 -2.0070124E+04
 4.5000000E+00  3.0000000E-01  1.0009331E+02 -2.7739022E-02 -2.0073358E+04
 4.7000000E+00  3.0000000E-01  1.0011316E+02 -3.2871107E-02 -2.0076805E+04
 4.9000000E+00  3.0000000E-01  1.0013667E+02 -3.8849186E-02 -2.0080478E+04
 5.1000000E+00  3.0000000E-01  1.0016442E+02 -4.5794131E-02 -2.0084387E+04
 5.3000000E+00  3.0000000E-01  1.0019711E+02 -5.3837902E-02 -2.0088543E+04
 5.5000000E+00  3.0000000E-01  1.0023551E+02 -6.3122099E-02 -2.0092952E+04
 5.7000000E+00  3.0000000E-01  1.0028050E+02 -7.3795242E-02 -2.0097617E+04
 5.9000000E+00  3.0000000E-01  1.0033306E+02 -8.6008294E-02 -2.0102534E+04
 6.1000000E+00  3.0000000E-01  1.0039425E+02 -9.9907829E-02 -2.0107692E+04
 6.3000000E+00  3.0000000E-01  1.0046528E+02 -1.1562617E-01 -2.0113069E+04
 6.5000000E+00  3.0000000E-01  1.0054738E+02 -1.3326770E-01 -2.0118626E+04
 6.7000000E+00  3.0000000E-01  1.0064191E+02 -1.5289050E-01 -2.0124303E+04
 6.9000000E+00  3.0000000E-01  1.0075020E+02 -1.7448269E-01 -2.0130012E+04
 7.1000000E+00  3.0000000E-01  1.0087360E+02 -1.9793279E-01 -2.0135626E+04
 7.3000000E+00  3.0000000E-01  1.0101331E+02 -2.2299436E-01 -2.0140970E+04
 7.5000000E+00  3.0000000E-01  1.0117038E+02 -2.4924573E-01 -2.0145808E+04
 7.7000000E+00  3.0000000E-01  1.0134548E+02 -2.7604724E-01 -2.0149823E+04
 7.9000000E+00  3.0000000E-01  1.0153879E+02 -3.0250034E-01 -2.0152600E+04
 8.1000000E+00  3.0000000E-01  1.0174983E+02 -3.2741538E-01 -2.0153609E+04
 8.3000000E+00  3.0000000E-01  1.0197719E+02 -3.4929777E-01 -2.0152178E+04
 8.5000000E+00  3.0000000E-01  1.0221836E+02 -3.6636456E-01 -2.0147479E+04
 8.7000000E+00  3.0000000E-01  1.0246952E+02 -3.7660515E-01 -2.0138513E+04
 8.9000000E+00  3.0000000E-01  1.0272544E+02 -3.7789819E-01 -2.0124102E+04
 9.1000000E+00  3.0000000E-01  1.0297935E+02 -3.6819149E-01 -2.0102902E+04
 9.3000000E+00  3.0000000E-01  1.0322315E+02 -3.4574127E-01 -2.0073431E+04
 9.5000000E+00  3.0000000E-01  1.0344763E+02 -3.0939056E-01 -2.0034121E+04
 9.7000000E+00  3.0000000E-01  1.0364302E+02 -2.5884826E-01 -1.9983393E+04
 9.9000000E+00  3.0000000E-01  1.0379962E+02 -1.9491368E-01 -1.9919763E+04
 1.0100000E+01  3.0000000E-01  1.0390867E+02 -1.1958546E-01 -1.9841946E+04
 1.0300000E+01  3.0000000E-01  1.0396321E+02 -3.6004804E-02 -1.9748973E+04
 1.0500000E+01  3.0000000E-01  1.0395878E+02  5.1786630E-02 -1.9640286E+04
 1.0700000E+01  3.0000000E-01  1.0389398E+02  1.3925022E-01 -1.9515799E+04
 1.0900000E+01  3.0000000E-01  1.0377065E+02  2.2184865E-01 -1.9375916E+04
 1.1100000E+01  3.0000000E-01  1.0359367E+02  2.9554592E-01 -1.9221501E+04
 1.1300000E+01  3.0000000E-01  1.0337047E+02  3.5721514E-01 -1.9053801E+04
 1.1500000E+01  3.0000000E-01  1.0311020E+02  4.0488574E-01 -1.8874344E+04
 1.1700000E+01  3.0000000E-01  1.0282296E+02  4.3780413E-01 -1.8684817E+04
 1.1900000E+01  3.0000000E-01  1.0251890E+02  4.5632590E-01 -1.8486956E+04
 1.2100000E+01  3.0000000E-01  1.0220751E+02  4.6168931E-01 -1.8282437E+04
 1.2300000E+01  3.0000000E-01  1.0189718E+02  4.5573182E-01 -1.8072811E+04
 1.2500000E+01  3.0000000E-01  1.0159481E+02  4.4060558E-01 -1.7859449E+04
 1.2700000E+01  3.0000000E-01  1.0130578E+02  4.1853206E-01 -1.7643520E+04
 1.2900000E+01  3.0000000E-01  1.0103395E+02  3.9161640E-01 -1.7425990E+04
 1.3100000E+01  3.0000000E-01  1.0078181E+02  3.6172621E-01 -1.7207628E+04
 1.3300000E+01  3.0000000E-01  1.0055069E+02  3.3042808E-01 -1.6989031E+04
 1.3500000E+01  3.0000000E-01  1.0034098E+02  2.9896959E-01 -1.6770643E+04
 1.3700000E+01  3.0000000E-01  1.0015235E+02  2.6829307E-01 -1.6552784E+04
 1.3900000E+01  3.0000000E-01  9.9983936E+01  2.3906864E-01 -1.6335673E+04
 1.4100000E+01  3.0000000E-01  9.9834537E+01  2.1173657E-01 -1.6119448E+04
 1.4300000E+01  3.0000000E-01  9.9702731E+01  1.8655177E-01 -1.5904187E+04
 1.4500000E+01  3.0000000E-01  9.9586994E+01  1.6362596E-01 -1.5689923E+04
 1.4700000E+01  3.0000000E-01  9.9485776E+01  1.4296488E-01 -1.5476654E+04
 1.4900000E+01  3.0000000E-01  9.9397562E+01  1.2449950E-01 -1.5264356E+04
 1.5100000E+01  3.0000000E-01  9.9320910E+01  1.0811119E-01 -1.5052991E+04
 1.5300000E+01  3.0000000E-01  9.9254473E+01  9.3651252E-02 -1.4842509E+04
 1.5500000E+01  3.0000000E-01  9.9197015E+01  8.0955561E-02 -1.4632855E+04
 1.5700000E+01  3.0000000E-01  9.9147416E+01  6.9855212E-02 -1.4423972E+04
 1.5900000E+01  3.0000000E-01  9.9104670E+01  6.0183899E-02 -1.4215803E+04
 1.6100000E+01  3.0000000E-01  9.9067880E+01  5.1782801E-02 -1.4008293E+04
 1.6300000E+01  3.0000000E-01  9.9036254E+01  4.4503584E-02 -1.3801387E+04
 1.6500000E+01  3.0000000E-01  9.9009094E+01  3.8210020E-02 -1.3595035E+04
 1.6700000E+01  3.0000000E-01  9.8985791E+01  3.2778620E-02 -1.3389189E+04
 1.6900000E+01  3.0000000E-01  9.8965812E+01  2.8098596E-02 -1.3183807E+04
 1.7100000E+01  3.0000000E-01  9.8948694E+01  2.4071376E-02 -1.2978847E+04
 1.7300000E+01  3.0000000E-01  9.8934035E+01  2.0609843E-02 -1.2774272E+04
 1.7500000E+01  3.0000000E-01  9.8921490E+01  1.7637432E-02 -1.2570048E+04
 1.7700000E+01  3.0000000E-01  9.8910757E+01  1.5087159E-02 -1.2366145E+04
 1.7900000E+01  3.0000000E-01  9.8901579E+01  1.2900637E-02 -1.2162533E+04
 1.8100000E+01  3.0000000E-01  9.8893733E+01  1.1027141E-02 -1.1959187E+04
 1.8300000E+01  3.0000000E-01  9.8887029E+01  9.4227144E-03 -1.1756084E+04
 1.8500000E+01  3.0000000E-01  9.8881300E+01  8.0493495E-03 -1.1553202E+04
 1.8700000E+01  3.0000000E-01  9.8876408E+01  6.8742459E-03 -1.1350522E+04
 1.8900000E+01  3.0000000E-01  9.8872231E+01  5.8691402E-03 -1.1148027E+04
 1.9100000E+01  3.0000000E-01  9.8868665E+01  5.0097111E-03 -1.0945700E+04
 1.9300000E+01  3.0000000E-01  9.8865622E+01  4.2750527E-03 -1.0743528E+04
 1.9500000E+01  3.0000000E-01  9.8863026E+01  3.6472123E-03 -1.0541496E+04
 1.9700000E+01  3.0000000E-01  9.8860811E+01  3.1107851E-03 -1.0339593E+04
 1.9900000E+01  3.0000000E-01  9.8858922E+01  2.6525623E-03 -1.0137809E+04
 2.0100000E+01  3.0000000E-01  9.8857312E+01  2.2612241E-03 -9.9361320E+03
 2.0300000E+01  3.0000000E-01  9.8855940E+01  1.9270748E-03 -9.7345547E+03
 2.0500000E+01  3.0000000E-01  9.8854770E+01  1.6418128E-03 -9.5330683E+03
 2.0700000E+01  3.0000000E-01  9.8853774E+01  1.3983330E-03 -9.3316652E+03
 2.0900000E+01  3.0000000E-01  9.8852926E+01  1.1905566E-03 -9.1303387E+03
 2.1100000E+01  3.0000000E-01  9.8852204E+01  1.0132835E-03 -8.9290825E+03
 2.1300000E+01  3.0000000E-01  9.8851590E+01  8.6206707E-04 -8.7278909E+03
 2.1500000E+01  3.0000000E-01  9.8851067E+01  7.3310524E-04 -8.5267586E+03
 2.1700000E+01  3.0000000E-01  9.8850623E+01  6.2314794E-04 -8.3256808E+03
 2.1900000E+01  3.0000000E-01  9.8850246E+01  5.2941733E-04 -8.1246532E+03
 2.2100000E+01  3.0000000E-01  9.8849925E+01  4.4953952E-04 -7.9236717E+03
 2.2300000E+01  3.0000000E-01  9.8849653E+01  3.8148615E-04 -7.7227327E+03
 2.2500000E+01  3.0000000E-01  9.8849422E+01  3.2352434E-04 -7.5218327E+03
 2.2700000E+01  3.0000000E-01  9.8849227E+01  2.7417370E-04 -7.3209687E+03
 2.2900000E+01  3.0000000E-01  9.8849061E+01  2.3216985E-04 -7.1201377E+03
 2.3100000E+01  3.0000000E-01  9.8848921E+01  1.9643289E-04 -6.9193373E+03
 2.3300000E+01  3.0000000E-01  9.8848802E+01  1.6604067E-04 -6.7185649E+03
 2.3500000E+01  3.0000000E-01  9.8848702E+01  1.4020577E-04 -6.5178185E+03
 2.3700000E+01  3.0000000E-01  9.8848617E+01  1.1825599E-04 -6.3170958E+03
 2.3900000E+01  3.0000000E-01  9.8848546E+01  9.9617561E-05 -6.1163951E+03
 2.4100000E+01  3.0000000E-01  9.8848486E+01  8.3800648E-05 -5.9157146E+03
 2.4300000E+01  3.0000000E-01  9.8848436E+01  7.0387303E-05 -5.7150528E+03
 2.4500000E+01  3.0000000E-01  9.8848393E+01  5.9020908E-05 -5.5144081E+03
 2.4700000E+01  3.0000000E-01  9.8848358E+01  4.9397150E-05 -5.3137793E+03
 2.4900000E+01  3.0000000E-01  9.8848328E+01  4.1256512E-05 -5.1131649E+03
 2.5100000E+01  3.0000000E-01  9.8848304E+01  3.4377635E-05 -4.9125640E+03
 2.5300000E+01  3.0000000E-01  9.8848283E+01  2.8571772E-05 -4.7119754E+03
 2.5500000E+01  3.0000000E-01  9.8848266E+01  2.3678032E-05 -4.5113981E+03
 2.5700000E+01  3.0000000E-01  9.8848252E+01  1.9559260E-05 -4.3108313E+03
 2.5900000E+01  3.0000000E-01  9.8848240E+01  1.6098598E-05 -4.1102740E+03
 2.6100000E+01  3.0000000E-01  9.8848231E+01  1.3196480E-05 -3.9097255E+03
 2.6300000E+01  3.0000000E-01  9.8848223E+01  1.0768127E-05 -3.7091851E+03
 2.6500000E+01  3.0000000E-01  9.8848217E+01  8.7413605E-06 -3.5086521E+03
 2.6700000E+01  3.0000000E-01  9.8848212E+01  7.0547116E-06 -3.3081259E+03
 2.6900000E+01  3.0000000E-01  9.8848207E+01  5.6559011E-06 -3.1076058E+03
 2.7100000E+01  3.0000000E-01  9.8848204E+01  4.5003882E-06 -2.9070913E+03
 2.7300000E+01  3.0000000E-01  9.8848202E+01  3.5503103E-06 -2.7065819E+03
 2.7500000E+01  3.0000000E-01  9.8848200E+01  2.7734452E-06 -2.5060771E+03
 2.7700000E+01  3.0000000E-01  9.8848198E+01  2.1423211E-06 -2.3055765E+03
 2.7900000E+01  3.0000000E-01  9.8848197E+01  1.6335703E-06 -2.1050797E+03
 2.8100000E+01  3.0000000E-01  9.8848196E+01  1.2272710E-06 -1.9045862E+03
 2.8300000E+01  3.0000000E-01  9.8848195E+01  9.0638309E-07 -1.7040956E+03
 2.8500000E+01  3.0000000E-01  9.8848195E+01  6.5634241E-07 -1.5036077E+03
 2.8700000E+01  3.0000000E-01  9.8848194E+01  4.6463332E-07 -1.3031220E+03
 2.8900000E+01  3.0000000E-01  9.8848194E+01  3.2040496E-07 -1.1026383E+03
 2.9100000E+01  3.0000000E-01  9.8848194E+01  2.1422013E-07 -9.0215620E+02
 2.9300000E+01  3.0000000E-01  9.8848194E+01  1.3775073E-07 -7.0167538E+02
 2.9500000E+01  3.0000000E-01  9.8848194E+01  8.3567459E-08 -5.0119556E+02
 2.9700000E+01  3.0000000E-01  9.8848194E+01  4.4919682E-08 -3.0071643E+02
 2.9900000E+01  3.0000000E-01  9.8848194E+01  1.4955251E-08 -1.0023771E+02
 1.0000000E-01  5.0000000E-01  1.0000012E+02  1.1667942E-03 -2.0030468E+04
 3.0000000E-01  5.0000000E-01  1.0000026E+02  8.4698932E-04 -2.0031490E+04
 5.0000000E-01  5.0000000E-01  1.0000024E+02  4.9052041E-04 -2.0032907E+04
 7.0000000E-01  5.0000000E-01  1.0000020E+02  1.4697171E-04 -2.0034418E+04
 9.0000000E-01  5.0000000E-01  1.0000023E+02 -2.1265884E-04 -2.0035924E+04
 1.1000000E+00  5.0000000E-01  1.0000036E+02 -6.1771565E-04 -2.0037406E+04
 1.3000000E+00  5.0000000E-01  1.0000064E+02 -1.0923407E-03 -2.0038876E+04
 1.5000000E+00  5.0000000E-01  1.0000111E+02 -1.6578030E-03 -2.0040352E+04
 1.7000000E+00  5.0000000E-01  1.0000181E+02 -2.3350253E-03 -2.0041853E+04
 1.9000000E+00  5.0000000E-01  1.0000279E+02 -3.1463916E-03 -2.0043394E+04
 2.1000000E+00  5.0000000E-01  1.0000410E+02 -4.1170322E-03 -2.0044991E+04
 2.3000000E+00  5.0000000E-01  1.0000581E+02 -5.2758369E-03 -2.0046657E+04
 2.5000000E+00  5.0000000E-01  1.0000800E+02 -6.6563638E-03 -2.0048404E+04
 2.7000000E+00  5.0000000E-01  1.0001076E+02 -8.2977418E-03 -2.0050246E+04
 2.9000000E+00  5.0000000E-01  1.0001420E+02 -1.0245623E-02 -2.0052192E+04
 3.1000000E+00  5.0000000E-01  1.0001845E+02 -1.2553222E-02 -2.0054255E+04
 3.3000000E+00  5.0000000E-01  1.0002364E+02 -1.5282451E-02 -2.0056445E+04
 3.5000000E+00  5.0000000E-01  1.0002996E+02 -1.8505183E-02 -2.0058774E+04
 3.7000000E+00  5.0000000E-01  1.0003762E+02 -2.2304609E-02 -2.0061254E+04
 3.9000000E+00  5.0000000E-01  1.0004685E+02 -2.6776714E-02 -2.0063898E+04
 4.1000000E+00  5.0000000E-01  1.0005792E+02 -3.2031808E-02 -2.0066717E+04
 4.3000000E+00  5.0000000E-01  1.0007118E+02 -3.8196094E-02 -2.0069725E+04
 4.5000000E+00  5.0000000E-01  1.0008698E+02 -4.5413168E-02 -2.0072934E+04
 4.7000000E+00  5.0000000E-01  1.0010578E+02 -5.3845346E-02 -2.0076359E+04
 4.9000000E+00  5.0000000E-01  1.0012808E+02 -6.3674636E-02 -2.0080012E+04
 5.1000000E+00  5.0000000E-01  1.0015446E+02 -7.5103104E-02 -2.0083905E+04
 5.3000000E+00  5.0000000E-01  1.0018559E+02 -8.8352303E-02 -2.0088051E+04
 5.5000000E+00  5.0000000E-01  1.0022224E+02 -1.0366128E-01 -2.0092459E+04
 5.7000000E+00  5.0000000E-01  1.0026528E+02 -1.2128257E-01 -2.0097136E+04
 5.9000000E+00  5.0000000E-01  1.0031568E+02 -1.4147538E-01 -2.0102084E+04
 6.1000000E+00  5.0000000E-01  1.0037453E+02 -1.6449501E-01 -2.0107298E+04
 6.3000000E+00  5.0000000E-01  1.0044305E+02 -1.9057723E-01 -2.0112766E+04
 6.5000000E+00  5.0000000E-01  1.0052254E+02 -2.1991642E-01 -2.0118459E+04
 6.7000000E+00  5.0000000E-01  1.0061441E+02 -2.5263575E-01 -2.0124334E+04
 6.9000000E+00  5.0000000E-01  1.0072013E+02 -2.8874826E-01 -2.0130320E+04
 7.1000000E+00  5.0000000E-01  1.0084118E+02 -3.2810745E-01 -2.0136315E+04
 7.3000000E+00  5.0000000E-01  1.0097899E+02 -3.7034723E-01 -2.0142171E+04
 7.5000000E+00  5.0000000E-01  1.0113484E+02 -4.1481213E-01 -2.0147683E+04
 7.7000000E+00  5.0000000E-01  1.0130974E+02 -4.6048124E-01 -2.0152571E+04
 7.9000000E+00  5.0000000E-01  1.0150425E+02 -5.0589240E-01 -2.0156459E+04
 8.1000000E+00  5.0000000E-01  1.0171827E+02 -5.4907781E-01 -2.0158853E+04
 8.3000000E+00  5.0000000E-01  1.0195081E+02 -5.8752749E-01 -2.0159115E+04
 8.5000000E+00  5.0000000E-01  1.0219970E+02 -6.1820204E-01 -2.0156438E+04
 8.7000000E+00  5.0000000E-01  1.0246139E+02 -6.3762035E-01 -2.0149825E+04
 8.9000000E+00  5.0000000E-01  1.0273064E+02 -6.4204700E-01 -2.0138072E+04
 9.1000000E+00  5.0000000E-01  1.0300048E+02 -6.2779671E-01 -2.0119772E+04
 9.3000000E+00  5.0000000E-01  1.0326220E+02 -5.9165511E-01 -2.0093337E+04
 9.5000000E+00  5.0000000E-01  1.0350563E+02 -5.3138580E-01 -2.0057050E+04
 9.7000000E+00  5.0000000E-01  1.0371965E+02 -4.4625616E-01 -2.0009148E+04
 9.9000000E+00  5.0000000E-01  1.0389302E+02 -3.3747900E-01 -1.9947939E+04
 1.0100000E+01  5.0000000E-01  1.0401539E+02 -2.0844913E-01 -1.9871937E+04
 1.0300000E+01  5.0000000E-01  1.0407838E+02 -6.4670064E-02 -1.9780005E+04
 1.0500000E+01  5.0000000E-01  1.0407659E+02  8.6676015E-02 -1.9671473E+04
 1.0700000E+01  5.0000000E-01  1.0400828E+02  2.3747416E-01 -1.9546227E+04
 1.0900000E+01  5.0000000E-01  1.0387562E+02  3.7960978E-01 -1.9404724E+04
 1.1100000E+01  5.0000000E-01  1.0368447E+02  5.0590533E-01 -1.9247959E+04
 1.1300000E+01  5.0000000E-01  1.0344366E+02  6.1087552E-01 -1.9077369E+04
 1.1500000E+01  5.0000000E-01  1.0316398E+02  6.9116815E-01 -1.8894693E+04
 1.1700000E+01  5.0000000E-01  1.0285710E+02  7.4564533E-01 -1.8701834E+04
 1.1900000E+01  5.0000000E-01  1.0253450E+02  7.7514927E-01 -1.8500713E+04
 1.2100000E+01  5.0000000E-01  1.0220669E+02  7.8205688E-01 -1.8293152E+04
 1.2300000E+01  5.0000000E-01  1.0188265E+02  7.6974518E-01 -1.8080802E+04
 1.2500000E+01  5.0000000E-01  1.0156954E+02  7.4207306E-01 -1.7865087E+04
 1.2700000E+01  5.0000000E-01  1.0127268E+02  7.0294898E-01 -1.7647192E+04
 1.2900000E+01  5.0000000E-01  1.0099570E+02  6.5601646E-01 -1.7428071E+04
 1.3100000E+01  5.0000000E-01  1.0074070E+02  6.0445914E-01 -1.7208460E+04
 1.3300000E+01  5.0000000E-01  1.0050861E+02  5.5090850E-01 -1.6988914E+04
 1.3500000E+01  5.0000000E-01  1.0029938E+02  4.9742901E-01 -1.6769831E+04
 1.3700000E+01  5.0000000E-01  1.0011229E+02  4.4555488E-01 -1.6551486E+04
 1.3900000E+01  5.0000000E-01  9.9946151E+01  3.9635623E-01 -1.6334054E+04
 1.4100000E+01  5.0000000E-01  9.9799482E+01  3.5051751E-01 -1.6117637E+04
 1.4300000E+01  5.0000000E-01  9.9670642E+01  3.0841691E-01 -1.5902282E+04
 1.4500000E+01  5.0000000E-01  9.9557941E+01  2.7019930E-01 -1.5687996E+04
 1.4700000E+01  5.0000000E-01  9.9459711E+01  2.3583957E-01 -1.5474757E+04
 1.4900000E+01  5.0000000E-01  9.9374355E+01  2.0519469E-01 -1.5262524E+04
 1.5100000E+01  5.0000000E-01  9.9300378E+01  1.7804523E-01 -1.5051247E+04
 1.5300000E+01  5.0000000E-01  9.9236405E+01  1.5412702E-01 -1.4840866E+04
 1.5500000E+01  5.0000000E-01  9.9181188E+01  1.3315470E-01 -1.4631320E+04
 1.5700000E+01  5.0000000E-01  9.9133604E+01  1.1483852E-01 -1.4422548E+04
 1.5900000E+01  5.0000000E-01  9.9092655E+01  9.8895847E-02 -1.4214488E+04
 1.6100000E+01  5.0000000E-01  9.9057458E+01  8.5058619E-02 -1.4007082E+04
 1.6300000E+01  5.0000000E-01  9.9027234E+01  7.3077799E-02 -1.3800276E+04
 1.6500000E+01  5.0000000E-01  9.9001303E+01  6.2725620E-02 -1.3594018E+04
 1.6700000E+01  5.0000000E-01  9.8979073E+01  5.3796305E-02 -1.3388260E+04
 1.6900000E+01  5.0000000E-01  9.8960028E+01  4.6105735E-02 -1.3182958E+04
 1.7100000E+01  5.0000000E-01  9.8943719E+01  3.9490456E-02 -1.2978073E+04
 1.7300000E+01  5.0000000E-01  9.8929762E+01  3.3806280E-02 -1.2773566E+04
 1.7500000E+01  5.0000000E-01  9.8917822E+01  2.8926675E-02 -1.2569405E+04
 1.7700000E+01  5.0000000E-01  9.8907612E+01  2.4741079E-02 -1.2365558E+04
 1.7900000E+01  5.0000000E-01  9.8898883E+01  2.1153233E-02 -1.2161998E+04
 1.8100000E+01  5.0000000E-01  9.8891424E+01  1.8079579E-02 -1.1958699E+04
 1.8300000E+01  5.0000000E-01  9.8885051E+01  1.5447763E-02 -1.1755639E+04
 1.8500000E+01  5.0000000E-01  9.8879608E+01  1.3195267E-02 -1.1552796E+04
 1.8700000E+01  5.0000000E-01  9.8874961E+01  1.1268166E-02 -1.1350151E+04
 1.8900000E+01  5.0000000E-01  9.8870993E+01  9.6200149E-03 -1.1147688E+04
 1.9100000E+01  5.0000000E-01  9.8867607E+01  8.2108636E-03 -1.0945390E+04
 1.9300000E+01  5.0000000E-01  9.8864718E+01  7.0063826E-03 -1.0743244E+04
 1.9500000E+01  5.0000000E-01  9.8862253E+01  5.9770999E-03 -1.0541237E+04
 1.9700000E+01  5.0000000E-01  9.8860151E+01  5.0977331E-03 -1.0339356E+04