VARIABLES = "X", "Y", "U", "V", "P"
ZONE I=   150, J=    40, K=1, F= POINT
 1.0000000E-01  1.0000000E-01  9.9999568E+01  4.3203742E-04 -1.9793638E+04
 3.0000000E-01  1.0000000E-01  9.9998954E+01  1.8145730E-04 -1.9798733E+04
 5.0000000E-01  1.0000000E-01  9.9998701E+01  7.1625123E-05 -1.9801949E+04
 7.0000000E-01  1.0000000E-01  9.9998631E+01 -1.2913981E-06 -1.9804332E+04
 9.0000000E-01  1.0000000E-01  9.9998703E+01 -7.0938455E-05 -1.9806304E+04
 1.1000000E+00  1.0000000E-01  9.9998924E+01 -1.4971691E-04 -1.9808063E+04
 1.3000000E+00  1.0000000E-01  9.9999317E+01 -2.4378126E-04 -1.9809714E+04
 1.5000000E+00  1.0000000E-01  9.9999919E+01 -3.5750636E-04 -1.9811320E+04
 1.7000000E+00  1.0000000E-01  1.0000077E+02 -4.9498520E-04 -1.9812921E+04
 1.9000000E+00  1.0000000E-01  1.0000193E+02 -6.6062262E-04 -1.9814548E+04
 2.1000000E+00  1.0000000E-01  1.0000345E+02 -8.5943509E-04 -1.9816222E+04
 2.3000000E+00  1.0000000E-01  1.0000540E+02 -1.0972521E-03 -1.9817961E+04
 2.5000000E+00  1.0000000E-01  1.0000788E+02 -1.3808901E-03 -1.9819781E+04
 2.7000000E+00  1.0000000E-01  1.0001098E+02 -1.7183266E-03 -1.9821696E+04
 2.9000000E+00  1.0000000E-01  1.0001482E+02 -2.1188863E-03 -1.9823719E+04
 3.1000000E+00  1.0000000E-01  1.0001953E+02 -2.5934456E-03 -1.9825863E+04
 3.3000000E+00  1.0000000E-01  1.0002528E+02 -3.1546588E-03 -1.9828139E+04
 3.5000000E+00  1.0000000E-01  1.0003225E+02 -3.8172065E-03 -1.9830561E+04
 3.7000000E+00  1.0000000E-01  1.0004067E+02 -4.5980653E-03 -1.9833141E+04
 3.9000000E+00  1.0000000E-01  1.0005078E+02 -5.5167941E-03 -1.9835892E+04
 4.1000000E+00  1.0000000E-01  1.0006289E+02 -6.5958325E-03 -1.9838827E+04
 4.3000000E+00  1.0000000E-01  1.0007735E+02 -7.8607958E-03 -1.9841960E+04
 4.5000000E+00  1.0000000E-01  1.0009455E+02 -9.3407511E-03 -1.9845304E+04
 4.7000000E+00  1.0000000E-01  1.0011496E+02 -1.1068447E-02 -1.9848872E+04
 4.9000000E+00  1.0000000E-01  1.0013911E+02 -1.3080457E-02 -1.9852678E+04
 5.1000000E+00  1.0000000E-01  1.0016761E+02 -1.5417182E-02 -1.9856733E+04
 5.3000000E+00  1.0000000E-01  1.0020115E+02 -1.8122643E-02 -1.9861048E+04
 5.5000000E+00  1.0000000E-01  1.0024051E+02 -2.1243958E-02 -1.9865630E+04
 5.7000000E+00  1.0000000E-01  1.0028659E+02 -2.4830386E-02 -1.9870481E+04
 5.9000000E+00  1.0000000E-01  1.0034035E+02 -2.8931766E-02 -1.9875599E+04
 6.1000000E+00  1.0000000E-01  1.0040288E+02 -3.3596170E-02 -1.9880972E+04
 6.3000000E+00  1.0000000E-01  1.0047534E+02 -3.8866523E-02 -1.9886577E+04
 6.5000000E+00  1.0000000E-01  1.0055898E+02 -4.4775954E-02 -1.9892371E+04
 6.7000000E+00  1.0000000E-01  1.0065510E+02 -5.1341594E-02 -1.9898293E+04
 6.9000000E+00  1.0000000E-01  1.0076500E+02 -5.8556622E-02 -1.9904250E+04
 7.1000000E+00  1.0000000E-01  1.0088994E+02 -6.6380403E-02 -1.9910109E+04
 7.3000000E+00  1.0000000E-01  1.0103104E+02 -7.4726784E-02 -1.9915689E+04
 7.5000000E+00  1.0000000E-01  1.0118922E+02 -8.3450926E-02 -1.9920742E+04
 7.7000000E+00  1.0000000E-01  1.0136501E+02 -9.2335505E-02 -1.9924942E+04
 7.9000000E+00  1.0000000E-01  1.0155842E+02 -1.0107779E-01 -1.9927866E+04
 8.1000000E+00  1.0000000E-01  1.0176878E+02 -1.0927989E-01 -1.9928970E+04
 8.3000000E+00  1.0000000E-01  1.0199450E+02 -1.1644541E-01 -1.9927580E+04
 8.5000000E+00  1.0000000E-01  1.0223294E+02 -1.2198626E-01 -1.9922866E+04
 8.7000000E+00  1.0000000E-01  1.0248017E+02 -1.2524412E-01 -1.9913836E+04
 8.9000000E+00  1.0000000E-01  1.0273094E+02 -1.2552989E-01 -1.9899337E+04
 9.1000000E+00  1.0000000E-01  1.0297865E+02 -1.2218314E-01 -1.9878060E+04
 9.3000000E+00  1.0000000E-01  1.0321549E+02 -1.1464961E-01 -1.9848580E+04
 9.5000000E+00  1.0000000E-01  1.0343270E+02 -1.0256996E-01 -1.9809399E+04
 9.7000000E+00  1.0000000E-01  1.0362114E+02 -8.5867274E-02 -1.9759027E+04
 9.9000000E+00  1.0000000E-01  1.0377183E+02 -6.4815856E-02 -1.9696065E+04
 1.0100000E+01  1.0000000E-01  1.0387671E+02 -4.0072900E-02 -1.9619313E+04
 1.0300000E+01  1.0000000E-01  1.0392944E+02 -1.2657971E-02 -1.9527865E+04
 1.0500000E+01  1.0000000E-01  1.0392598E+02  1.6124936E-02 -1.9421196E+04
 1.0700000E+01  1.0000000E-01  1.0386504E+02  4.4814973E-02 -1.9299214E+04
 1.0900000E+01  1.0000000E-01  1.0374827E+02  7.1951061E-02 -1.9162279E+04
 1.1100000E+01  1.0000000E-01  1.0358009E+02  9.6229086E-02 -1.9011175E+04
 1.1300000E+01  1.0000000E-01  1.0336723E+02  1.1663095E-01 -1.8847046E+04
 1.1500000E+01  1.0000000E-01  1.0311810E+02  1.3250438E-01 -1.8671309E+04
 1.1700000E+01  1.0000000E-01  1.0284201E+02  1.4358494E-01 -1.8485540E+04
 1.1900000E+01  1.0000000E-01  1.0254846E+02  1.4996529E-01 -1.8291380E+04
 1.2100000E+01  1.0000000E-01  1.0224647E+02  1.5202604E-01 -1.8090433E+04
 1.2300000E+01  1.0000000E-01  1.0194409E+02  1.5034732E-01 -1.7884200E+04
 1.2500000E+01  1.0000000E-01  1.0164813E+02  1.4561831E-01 -1.7674026E+04
 1.2700000E+01  1.0000000E-01  1.0136395E+02  1.3855783E-01 -1.7461076E+04
 1.2900000E+01  1.0000000E-01  1.0109554E+02  1.2985313E-01 -1.7246321E+04
 1.3100000E+01  1.0000000E-01  1.0084557E+02  1.2011889E-01 -1.7030551E+04
 1.3300000E+01  1.0000000E-01  1.0061557E+02  1.0987473E-01 -1.6814385E+04
 1.3500000E+01  1.0000000E-01  1.0040616E+02  9.9537769E-02 -1.6598294E+04
 1.3700000E+01  1.0000000E-01  1.0021720E+02  8.9425757E-02 -1.6382625E+04
 1.3900000E+01  1.0000000E-01  1.0004801E+02  7.9766957E-02 -1.6167618E+04
 1.4100000E+01  1.0000000E-01  9.9897525E+01  7.0713410E-02 -1.5953434E+04
 1.4300000E+01  1.0000000E-01  9.9764456E+01  6.2355205E-02 -1.5740168E+04
 1.4500000E+01  1.0000000E-01  9.9647367E+01  5.4734199E-02 -1.5527866E+04
 1.4700000E+01  1.0000000E-01  9.9544776E+01  4.7856266E-02 -1.5316541E+04
 1.4900000E+01  1.0000000E-01  9.9455218E+01  4.1701670E-02 -1.5106176E+04
 1.5100000E+01  1.0000000E-01  9.9377283E+01  3.6233482E-02 -1.4896739E+04
 1.5300000E+01  1.0000000E-01  9.9309646E+01  3.1404166E-02 -1.4688186E+04
 1.5500000E+01  1.0000000E-01  9.9251081E+01  2.7160553E-02 -1.4480466E+04
 1.5700000E+01  1.0000000E-01  9.9200473E+01  2.3447473E-02 -1.4273525E+04
 1.5900000E+01  1.0000000E-01  9.9156815E+01  2.0210302E-02 -1.4067307E+04
 1.6100000E+01  1.0000000E-01  9.9119208E+01  1.7396659E-02 -1.3861757E+04
 1.6300000E+01  1.0000000E-01  9.9086854E+01  1.4957471E-02 -1.3656822E+04
 1.6500000E+01  1.0000000E-01  9.9059049E+01  1.2847561E-02 -1.3452452E+04
 1.6700000E+01  1.0000000E-01  9.9035175E+01  1.1025896E-02 -1.3248600E+04
 1.6900000E+01  1.0000000E-01  9.9014694E+01  9.4556028E-03 -1.3045220E+04
 1.7100000E+01  1.0000000E-01  9.8997135E+01  8.1038317E-03 -1.2842273E+04
 1.7300000E+01  1.0000000E-01  9.8982089E+01  6.9415187E-03 -1.2639720E+04
 1.7500000E+01  1.0000000E-01  9.8969205E+01  5.9430959E-03 -1.2437527E+04
 1.7700000E+01  1.0000000E-01  9.8958175E+01  5.0861768E-03 -1.2235663E+04
 1.7900000E+01  1.0000000E-01  9.8948738E+01  4.3512360E-03 -1.2034098E+04
 1.8100000E+01  1.0000000E-01  9.8940665E+01  3.7212992E-03 -1.1832807E+04
 1.8300000E+01  1.0000000E-01  9.8933762E+01  3.1816499E-03 -1.1631765E+04
 1.8500000E+01  1.0000000E-01  9.8927861E+01  2.7195579E-03 -1.1430950E+04
 1.8700000E+01  1.0000000E-01  9.8922818E+01  2.3240327E-03 -1.1230344E+04
 1.8900000E+01  1.0000000E-01  9.8918508E+01  1.9856005E-03 -1.1029927E+04
 1.9100000E+01  1.0000000E-01  9.8914826E+01  1.6961064E-03 -1.0829683E+04
 1.9300000E+01  1.0000000E-01  9.8911682E+01  1.4485387E-03 -1.0629599E+04
 1.9500000E+01  1.0000000E-01  9.8908996E+01  1.2368744E-03 -1.0429659E+04
 1.9700000E+01  1.0000000E-01  9.8906703E+01  1.0559442E-03 -1.0229852E+04
 1.9900000E+01  1.0000000E-01  9.8904746E+01  9.0131468E-04 -1.0030167E+04
 2.0100000E+01  1.0000000E-01  9.8903076E+01  7.6918543E-04 -9.8305930E+03
 2.0300000E+01  1.0000000E-01  9.8901650E+01  6.5630054E-04 -9.6311214E+03
 2.0500000E+01  1.0000000E-01  9.8900434E+01  5.5987186E-04 -9.4317434E+03
 2.0700000E+01  1.0000000E-01  9.8899397E+01  4.7751249E-04 -9.2324514E+03
 2.0900000E+01  1.0000000E-01  9.8898512E+01  4.0717971E-04 -9.0332383E+03
 2.1100000E+01  1.0000000E-01  9.8897758E+01  3.4712598E-04 -8.8340977E+03
 2.1300000E+01  1.0000000E-01  9.8897115E+01  2.9585639E-04 -8.6350236E+03
 2.1500000E+01  1.0000000E-01  9.8896567E+01  2.5209246E-04 -8.4360106E+03
 2.1700000E+01  1.0000000E-01  9.8896100E+01  2.1474105E-04 -8.2370539E+03
 2.1900000E+01  1.0000000E-01  9.8895702E+01  1.8286765E-04 -8.0381490E+03
 2.2100000E+01  1.0000000E-01  9.8895364E+01  1.5567338E-04 -7.8392916E+03
 2.2300000E+01  1.0000000E-01  9.8895075E+01  1.3247547E-04 -7.6404780E+03
 2.2500000E+01  1.0000000E-01  9.8894830E+01  1.1269046E-04 -7.4417047E+03
 2.2700000E+01  1.0000000E-01  9.8894622E+01  9.5819637E-05 -7.2429684E+03
 2.2900000E+01  1.0000000E-01  9.8894445E+01  8.1436932E-05 -7.0442664E+03
 2.3100000E+01  1.0000000E-01  9.8894294E+01  6.9178369E-05 -6.8455958E+03
 2.3300000E+01  1.0000000E-01  9.8894166E+01  5.8732940E-05 -6.6469542E+03
 2.3500000E+01  1.0000000E-01  9.8894057E+01  4.9834967E-05 -6.4483392E+03
 2.3700000E+01  1.0000000E-01  9.8893965E+01  4.2257589E-05 -6.2497489E+03
 2.3900000E+01  1.0000000E-01  9.8893887E+01  3.5806918E-05 -6.0511811E+03
 2.4100000E+01  1.0000000E-01  9.8893821E+01  3.0317444E-05 -5.8526343E+03
 2.4300000E+01  1.0000000E-01  9.8893765E+01  2.5647894E-05 -5.6541067E+03
 2.4500000E+01  1.0000000E-01  9.8893718E+01  2.1677552E-05 -5.4555968E+03
 2.4700000E+01  1.0000000E-01  9.8893678E+01  1.8303389E-05 -5.2571032E+03
 2.4900000E+01  1.0000000E-01  9.8893644E+01  1.5437446E-05 -5.0586246E+03
 2.5100000E+01  1.0000000E-01  9.8893616E+01  1.3004646E-05 -4.8601598E+03
 2.5300000E+01  1.0000000E-01  9.8893592E+01  1.0940868E-05 -4.6617077E+03
 2.5500000E+01  1.0000000E-01  9.8893572E+01  9.1913642E-06 -4.4632674E+03
 2.5700000E+01  1.0000000E-01  9.8893555E+01  7.7095206E-06 -4.2648378E+03
 2.5900000E+01  1.0000000E-01  9.8893541E+01  6.4555463E-06 -4.0664180E+03
 2.6100000E+01  1.0000000E-01  9.8893529E+01  5.3954376E-06 -3.8680074E+03
 2.6300000E+01  1.0000000E-01  9.8893519E+01  4.5002222E-06 -3.6696051E+03
 2.6500000E+01  1.0000000E-01  9.8893511E+01  3.7451934E-06 -3.4712104E+03
 2.6700000E+01  1.0000000E-01  9.8893504E+01  3.1092979E-06 -3.2728226E+03
 2.6900000E+01  1.0000000E-01  9.8893498E+01  2.5745202E-06 -3.0744412E+03
 2.7100000E+01  1.0000000E-01  9.8893493E+01  2.1255132E-06 -2.8760657E+03
 2.7300000E+01  1.0000000E-01  9.8893489E+01  1.7492113E-06 -2.6776954E+03
 2.7500000E+01  1.0000000E-01  9.8893486E+01  1.4345021E-06 -2.4793298E+03
 2.7700000E+01  1.0000000E-01  9.8893484E+01  1.1717876E-06 -2.2809686E+03
 2.7900000E+01  1.0000000E-01  9.8893482E+01  9.5292144E-07 -2.0826113E+03
 2.8100000E+01  1.0000000E-01  9.8893480E+01  7.7090555E-07 -1.8842574E+03
 2.8300000E+01  1.0000000E-01  9.8893478E+01  6.1975373E-07 -1.6859066E+03
 2.8500000E+01  1.0000000E-01  9.8893477E+01  4.9429508E-07 -1.4875584E+03
 2.8700000E+01  1.0000000E-01  9.8893476E+01  3.9011785E-07 -1.2892126E+03
 2.8900000E+01  1.0000000E-01  9.8893476E+01  3.0330661E-07 -1.0908688E+03
 2.9100000E+01  1.0000000E-01  9.8893475E+01  2.3046523E-07 -8.9252665E+02
 2.9300000E+01  1.0000000E-01  9.8893475E+01  1.6858087E-07 -6.9418587E+02
 2.9500000E+01  1.0000000E-01  9.8893475E+01  1.1490034E-07 -4.9584614E+02
 2.9700000E+01  1.0000000E-01  9.8893474E+01  6.6957026E-08 -2.9750715E+02
 2.9900000E+01  1.0000000E-01  9.8893474E+01  2.2535113E-08 -9.9168614E+01
 1.0000000E-01  3.0000000E-01  1.0000011E+02  7.5311928E-04 -1.9798542E+04
 3.0000000E-01  3.0000000E-01  1.0000019E+02  3.9722325E-04 -1.9800614E+04
 5.0000000E-01  3.0000000E-01  1.0000012E+02  1.7794490E-04 -1.9802781E+04
 7.0000000E-01  3.0000000E-01  1.0000009E+02 -7.1442320E-06 -1.9804742E+04
 9.0000000E-01  3.0000000E-01  1.0000015E+02 -2.0368537E-04 -1.9806517E+04
 1.1000000E+00  3.0000000E-01  1.0000035E+02 -4.3386749E-04 -1.9808171E+04
 1.3000000E+00  3.0000000E-01  1.0000071E+02 -7.1168712E-04 -1.9809759E+04
 1.5000000E+00  3.0000000E-01  1.0000127E+02 -1.0487713E-03 -1.9811324E+04
 1.7000000E+00  3.0000000E-01  1.0000207E+02 -1.4568052E-03 -1.9812896E+04
 1.9000000E+00  3.0000000E-01  1.0000316E+02 -1.9487039E-03 -1.9814501E+04
 2.1000000E+00  3.0000000E-01  1.0000461E+02 -2.5393150E-03 -1.9816156E+04
 2.3000000E+00  3.0000000E-01  1.0000648E+02 -3.2459531E-03 -1.9817880E+04
 2.5000000E+00  3.0000000E-01  1.0000886E+02 -4.0888942E-03 -1.9819686E+04
 2.7000000E+00  3.0000000E-01  1.0001184E+02 -5.0918845E-03 -1.9821588E+04
 2.9000000E+00  3.0000000E-01  1.0001554E+02 -6.2826936E-03 -1.9823599E+04
 3.1000000E+00  3.0000000E-01  1.0002010E+02 -7.6937247E-03 -1.9825730E+04
 3.3000000E+00  3.0000000E-01  1.0002566E+02 -9.3626928E-03 -1.9827994E+04
 3.5000000E+00  3.0000000E-01  1.0003241E+02 -1.1333370E-02 -1.9830404E+04
 3.7000000E+00  3.0000000E-01  1.0004057E+02 -1.3656400E-02 -1.9832971E+04
 3.9000000E+00  3.0000000E-01  1.0005038E+02 -1.6390162E-02 -1.9835709E+04
 4.1000000E+00  3.0000000E-01  1.0006215E+02 -1.9601680E-02 -1.9838631E+04
 4.3000000E+00  3.0000000E-01  1.0007621E+02 -2.3367522E-02 -1.9841751E+04
 4.5000000E+00  3.0000000E-01  1.0009295E+02 -2.7774664E-02 -1.9845082E+04
 4.7000000E+00  3.0000000E-01  1.0011282E+02 -3.2921206E-02 -1.9848638E+04
 4.9000000E+00  3.0000000E-01  1.0013636E+02 -3.8916866E-02 -1.9852433E+04
 5.1000000E+00  3.0000000E-01  1.0016417E+02 -4.5883058E-02 -1.9856479E+04
 5.3000000E+00  3.0000000E-01  1.0019692E+02 -5.3952366E-02 -1.9860788E+04
 5.5000000E+00  3.0000000E-01  1.0023541E+02 -6.3267104E-02 -1.9865368E+04
 5.7000000E+00  3.0000000E-01  1.0028050E+02 -7.3976605E-02 -1.9870224E+04
 5.9000000E+00  3.0000000E-01  1.0033319E+02 -8.6232740E-02 -1.9875357E+04
 6.1000000E+00  3.0000000E-01  1.0039455E+02 -1.0018310E-01 -1.9880757E+04
 6.3000000E+00  3.0000000E-01  1.0046577E+02 -1.1596112E-01 -1.9886406E+04
 6.5000000E+00  3.0000000E-01  1.0054812E+02 -1.3367237E-01 -1.9892269E+04
 6.7000000E+00  3.0000000E-01  1.0064293E+02 -1.5337622E-01 -1.9898291E+04
 6.9000000E+00  3.0000000E-01  1.0075157E+02 -1.7506206E-01 -1.9904387E+04
 7.1000000E+00  3.0000000E-01  1.0087538E+02 -1.9861967E-01 -1.9910438E+04
 7.3000000E+00  3.0000000E-01  1.0101559E+02 -2.2380379E-01 -1.9916275E+04
 7.5000000E+00  3.0000000E-01  1.0117323E+02 -2.5019368E-01 -1.9921668E+04
 7.7000000E+00  3.0000000E-01  1.0134900E+02 -2.7715029E-01 -1.9926307E+04
 7.9000000E+00  3.0000000E-01  1.0154310E+02 -3.0377516E-01 -1.9929786E+04
 8.1000000E+00  3.0000000E-01  1.0175504E+02 -3.2887803E-01 -1.9931583E+04
 8.3000000E+00  3.0000000E-01  1.0198343E+02 -3.5096275E-01 -1.9931036E+04
 8.5000000E+00  3.0000000E-01  1.0222577E+02 -3.6824374E-01 -1.9927325E+04
 8.7000000E+00  3.0000000E-01  1.0247826E+02 -3.7870646E-01 -1.9919457E+04
 8.9000000E+00  3.0000000E-01  1.0273564E+02 -3.8022420E-01 -1.9906265E+04
 9.1000000E+00  3.0000000E-01  1.0299118E+02 -3.7073817E-01 -1.9886408E+04
 9.3000000E+00  3.0000000E-01  1.0323675E+02 -3.4849678E-01 -1.9858408E+04
 9.5000000E+00  3.0000000E-01  1.0346314E+02 -3.1233461E-01 -1.9820697E+04
 9.7000000E+00  3.0000000E-01  1.0366055E+02 -2.6195195E-01 -1.9771694E+04
 9.9000000E+00  3.0000000E-01  1.0381928E+02 -1.9814017E-01 -1.9709905E+04
 1.0100000E+01  3.0000000E-01  1.0393053E+02 -1.2289134E-01 -1.9634034E+04
 1.0300000E+01  3.0000000E-01  1.0398731E+02 -3.9342126E-02 -1.9543095E+04
 1.0500000E+01  3.0000000E-01  1.0398511E+02  4.8467906E-02 -1.9436513E+04
 1.0700000E+01  3.0000000E-01  1.0392253E+02  1.3599955E-01 -1.9314180E+04
 1.0900000E+01  3.0000000E-01  1.0380135E+02  2.1871237E-01 -1.9176480E+04
 1.1100000E+01  3.0000000E-01  1.0362643E+02  2.9256492E-01 -1.9024257E+04
 1.1300000E+01  3.0000000E-01  1.0340516E+02  3.5442314E-01 -1.8858743E+04
 1.1500000E+01  3.0000000E-01  1.0314670E+02  4.0230808E-01 -1.8681454E+04
 1.1700000E+01  3.0000000E-01  1.0286111E+02  4.3545732E-01 -1.8494069E+04
 1.1900000E+01  3.0000000E-01  1.0255854E+02  4.5421782E-01 -1.8298316E+04
 1.2100000E+01  3.0000000E-01  1.0224848E+02  4.5982000E-01 -1.8095874E+04
 1.2300000E+01  3.0000000E-01  1.0193932E+02  4.5409465E-01 -1.7888292E+04
 1.2500000E+01  3.0000000E-01  1.0163796E+02  4.3918872E-01 -1.7676944E+04
 1.2700000E+01  3.0000000E-01  1.0134981E+02  4.1731991E-01 -1.7463006E+04
 1.2900000E+01  3.0000000E-01  1.0107872E+02  3.9059101E-01 -1.7247445E+04
 1.3100000E+01  3.0000000E-01  1.0082720E+02  3.6086848E-01 -1.7031038E+04
 1.3300000E+01  3.0000000E-01  1.0059660E+02  3.2971875E-01 -1.6814385E+04
 1.3500000E+01  3.0000000E-01  1.0038732E+02  2.9838994E-01 -1.6597934E+04
 1.3700000E+01  3.0000000E-01  1.0019903E+02  2.6782548E-01 -1.6382008E+04
 1.3900000E+01  3.0000000E-01  1.0003089E+02  2.3869689E-01 -1.6166831E+04
 1.4100000E+01  3.0000000E-01  9.9881713E+01  2.1144601E-01 -1.5952542E+04
 1.4300000E+01  3.0000000E-01  9.9750075E+01  1.8632941E-01 -1.5739222E+04
 1.4500000E+01  3.0000000E-01  9.9634464E+01  1.6346039E-01 -1.5526904E+04
 1.4700000E+01  3.0000000E-01  9.9533338E+01  1.4284622E-01 -1.5315589E+04
 1.4900000E+01  3.0000000E-01  9.9445188E+01  1.2441926E-01 -1.5105253E+04
 1.5100000E+01  3.0000000E-01  9.9368577E+01  1.0806215E-01 -1.4895858E+04
 1.5300000E+01  3.0000000E-01  9.9302163E+01  9.3627292E-02 -1.4687355E+04
 1.5500000E+01  3.0000000E-01  9.9244714E+01  8.0951556E-02 -1.4479688E+04
 1.5700000E+01  3.0000000E-01  9.9195111E+01  6.9866884E-02 -1.4272802E+04
 1.5900000E+01  3.0000000E-01  9.9152352E+01  6.0207697E-02 -1.4066638E+04
 1.6100000E+01  3.0000000E-01  9.9115543E+01  5.1815796E-02 -1.3861141E+04
 1.6300000E+01  3.0000000E-01  9.9083892E+01  4.4543373E-02 -1.3656256E+04
 1.6500000E+01  3.0000000E-01  9.9056704E+01  3.8254643E-02 -1.3451934E+04
 1.6700000E+01  3.0000000E-01  9.9033370E+01  3.2826490E-02 -1.3248125E+04
 1.6900000E+01  3.0000000E-01  9.9013358E+01  2.8148436E-02 -1.3044787E+04
 1.7100000E+01  3.0000000E-01  9.8996206E+01  2.4122165E-02 -1.2841877E+04
 1.7300000E+01  3.0000000E-01  9.8981514E+01  2.0660775E-02 -1.2639359E+04
 1.7500000E+01  3.0000000E-01  9.8968934E+01  1.7687878E-02 -1.2437198E+04
 1.7700000E+01  3.0000000E-01  9.8958168E+01  1.5136633E-02 -1.2235363E+04
 1.7900000E+01  3.0000000E-01  9.8948958E+01  1.2948773E-02 -1.2033824E+04
 1.8100000E+01  3.0000000E-01  9.8941080E+01  1.1073669E-02 -1.1832557E+04
 1.8300000E+01  3.0000000E-01  9.8934345E+01  9.4674428E-03 -1.1631537E+04
 1.8500000E+01  3.0000000E-01  9.8928588E+01  8.0921504E-03 -1.1430742E+04
 1.8700000E+01  3.0000000E-01  9.8923668E+01  6.9150422E-03 -1.1230153E+04
 1.8900000E+01  3.0000000E-01  9.8919464E+01  5.9078953E-03 -1.1029753E+04
 1.9100000E+01  3.0000000E-01  9.8915873E+01  5.0464201E-03 -1.0829524E+04
 1.9300000E+01  3.0000000E-01  9.8912806E+01  4.3097359E-03 -1.0629453E+04
 1.9500000E+01  3.0000000E-01  9.8910188E+01  3.6799090E-03 -1.0429526E+04
 1.9700000E+01  3.0000000E-01  9.8907952E+01  3.1415493E-03 -1.0229730E+04
 1.9900000E+01  3.0000000E-01  9.8906043E+01  2.6814585E-03 -1.0030055E+04
 2.0100000E+01  3.0000000E-01  9.8904415E+01  2.2883245E-03 -9.8304907E+03
 2.0300000E+01  3.0000000E-01  9.8903025E+01  1.9524563E-03 -9.6310276E+03
 2.0500000E+01  3.0000000E-01  9.8901839E+01  1.6655557E-03 -9.4316574E+03
 2.0700000E+01  3.0000000E-01  9.8900828E+01  1.4205189E-03 -9.2323724E+03
 2.0900000E+01  3.0000000E-01  9.8899965E+01  1.2112673E-03 -9.0331658E+03
 2.1100000E+01  3.0000000E-01  9.8899230E+01  1.0326000E-03 -8.8340310E+03
 2.1300000E+01  3.0000000E-01  9.8898603E+01  8.8006867E-04 -8.6349623E+03
 2.1500000E+01  3.0000000E-01  9.8898069E+01  7.4986921E-04 -8.4359543E+03
 2.1700000E+01  3.0000000E-01  9.8897614E+01  6.3874891E-04 -8.2370022E+03
 2.1900000E+01  3.0000000E-01  9.8897227E+01  5.4392705E-04 -8.0381014E+03
 2.2100000E+01  3.0000000E-01  9.8896897E+01  4.6302667E-04 -7.8392478E+03
 2.2300000E+01  3.0000000E-01  9.8896616E+01  3.9401619E-04 -7.6404377E+03
 2.2500000E+01  3.0000000E-01  9.8896378E+01  3.3515943E-04 -7.4416676E+03
 2.2700000E+01  3.0000000E-01  9.8896174E+01  2.8497275E-04 -7.2429343E+03
 2.2900000E+01  3.0000000E-01  9.8896002E+01  2.4218847E-04 -7.0442349E+03
 2.3100000E+01  3.0000000E-01  9.8895855E+01  2.0572354E-04 -6.8455668E+03
 2.3300000E+01  3.0000000E-01  9.8895731E+01  1.7465268E-04 -6.6469275E+03
 2.3500000E+01  3.0000000E-01  9.8895625E+01  1.4818551E-04 -6.4483146E+03
 2.3700000E+01  3.0000000E-01  9.8895535E+01  1.2564693E-04 -6.2497262E+03
 2.3900000E+01  3.0000000E-01  9.8895459E+01  1.0646029E-04 -6.0511603E+03
 2.4100000E+01  3.0000000E-01  9.8895395E+01  9.0133180E-05 -5.8526151E+03
 2.4300000E+01  3.0000000E-01  9.8895340E+01  7.6245107E-05 -5.6540890E+03
 2.4500000E+01  3.0000000E-01  9.8895294E+01  6.4437022E-05 -5.4555805E+03
 2.4700000E+01  3.0000000E-01  9.8895255E+01  5.4402379E-05 -5.2570881E+03
 2.4900000E+01  3.0000000E-01  9.8895223E+01  4.5879486E-05 -5.0586107E+03
 2.5100000E+01  3.0000000E-01  9.8895195E+01  3.8644961E-05 -4.8601470E+03
 2.5300000E+01  3.0000000E-01  9.8895172E+01  3.2508134E-05 -4.6616960E+03
 2.5500000E+01  3.0000000E-01  9.8895152E+01  2.7306286E-05 -4.4632566E+03
 2.5700000E+01  3.0000000E-01  9.8895136E+01  2.2900595E-05 -4.2648279E+03
 2.5900000E+01  3.0000000E-01  9.8895122E+01  1.9172615E-05 -4.0664090E+03
 2.6100000E+01  3.0000000E-01  9.8895111E+01  1.6021290E-05 -3.8679991E+03
 2.6300000E+01  3.0000000E-01  9.8895101E+01  1.3360420E-05 -3.6695974E+03
 2.6500000E+01  3.0000000E-01  9.8895093E+01  1.1116487E-05 -3.4712034E+03
 2.6700000E+01  3.0000000E-01  9.8895086E+01  9.2267906E-06 -3.2728163E+03
 2.6900000E+01  3.0000000E-01  9.8895081E+01  7.6378384E-06 -3.0744354E+03
 2.7100000E+01  3.0000000E-01  9.8895076E+01  6.3040073E-06 -2.8760604E+03
 2.7300000E+01  3.0000000E-01  9.8895073E+01  5.1863842E-06 -2.6776906E+03
 2.7500000E+01  3.0000000E-01  9.8895070E+01  4.2517630E-06 -2.4793255E+03
 2.7700000E+01  3.0000000E-01  9.8895067E+01  3.4717606E-06 -2.2809648E+03
 2.7900000E+01  3.0000000E-01  9.8895065E+01  2.8221193E-06 -2.0826078E+03
 2.8100000E+01  3.0000000E-01  9.8895063E+01  2.2820675E-06 -1.8842543E+03
 2.8300000E+01  3.0000000E-01  9.8895062E+01  1.8337859E-06 -1.6859039E+03
 2.8500000E+01  3.0000000E-01  9.8895061E+01  1.4619347E-06 -1.4875561E+03
 2.8700000E+01  3.0000000E-01  9.8895060E+01  1.1532618E-06 -1.2892106E+03
 2.8900000E+01  3.0000000E-01  9.8895059E+01  8.9622067E-07 -1.0908671E+03
 2.9100000E+01  3.0000000E-01  9.8895059E+01  6.8068736E-07 -8.9252531E+02
 2.9300000E+01  3.0000000E-01  9.8895059E+01  4.9767858E-07 -6.9418484E+02
 2.9500000E+01  3.0000000E-01  9.8895058E+01  3.3910219E-07 -4.9584541E+02
 2.9700000E+01  3.0000000E-01  9.8895058E+01  1.9754917E-07 -2.9750672E+02
 2.9900000E+01  3.0000000E-01  9.8895058E+01  6.6454931E-08 -9.9168466E+01
 1.0000000E-01  5.0000000E-01  1.0000000E+02  6.3903522E-04 -1.9801375E+04
 3.0000000E-01  5.0000000E-01  9.9999970E+01  4.6746086E-04 -1.9802399E+04
 5.0000000E-01  5.0000000E-01  9.9999897E+01  2.5005604E-04 -1.9803820E+04
 7.0000000E-01  5.0000000E-01  9.9999849E+01 -1.5457875E-06 -1.9805338E+04
 9.0000000E-01  5.0000000E-01  9.9999877E+01 -3.0279297E-04 -1.9806852E+04
 1.1000000E+00  5.0000000E-01  1.0000002E+02 -6.7038347E-04 -1.9808345E+04
 1.3000000E+00  5.0000000E-01  1.0000030E+02 -1.1203328E-03 -1.9809829E+04
 1.5000000E+00  5.0000000E-01  1.0000077E+02 -1.6690928E-03 -1.9811321E+04
 1.7000000E+00  5.0000000E-01  1.0000147E+02 -2.3347686E-03 -1.9812839E+04
 1.9000000E+00  5.0000000E-01  1.0000244E+02 -3.1380839E-03 -1.9814402E+04
 2.1000000E+00  5.0000000E-01  1.0000375E+02 -4.1031821E-03 -1.9816023E+04
 2.3000000E+00  5.0000000E-01  1.0000545E+02 -5.2583693E-03 -1.9817717E+04
 2.5000000E+00  5.0000000E-01  1.0000764E+02 -6.6368717E-03 -1.9819496E+04
 2.7000000E+00  5.0000000E-01  1.0001039E+02 -8.2776519E-03 -1.9821373E+04
 2.9000000E+00  5.0000000E-01  1.0001382E+02 -1.0226313E-02 -1.9823358E+04
 3.1000000E+00  5.0000000E-01  1.0001805E+02 -1.2536109E-02 -1.9825465E+04
 3.3000000E+00  5.0000000E-01  1.0002324E+02 -1.5269069E-02 -1.9827704E+04
 3.5000000E+00  5.0000000E-01  1.0002956E+02 -1.8497244E-02 -1.9830089E+04
 3.7000000E+00  5.0000000E-01  1.0003721E+02 -2.2304077E-02 -1.9832630E+04
 3.9000000E+00  5.0000000E-01  1.0004644E+02 -2.6785864E-02 -1.9835342E+04
 4.1000000E+00  5.0000000E-01  1.0005752E+02 -3.2053308E-02 -1.9838238E+04
 4.3000000E+00  5.0000000E-01  1.0007078E+02 -3.8233077E-02 -1.9841331E+04
 4.5000000E+00  5.0000000E-01  1.0008660E+02 -4.5469325E-02 -1.9844636E+04
 4.7000000E+00  5.0000000E-01  1.0010542E+02 -5.3925026E-02 -1.9848166E+04
 4.9000000E+00  5.0000000E-01  1.0012775E+02 -6.3782953E-02 -1.9851938E+04
 5.1000000E+00  5.0000000E-01  1.0015417E+02 -7.5246067E-02 -1.9855964E+04
 5.3000000E+00  5.0000000E-01  1.0018537E+02 -8.8536950E-02 -1.9860259E+04
 5.5000000E+00  5.0000000E-01  1.0022209E+02 -1.0389583E-01 -1.9864833E+04
 5.7000000E+00  5.0000000E-01  1.0026523E+02 -1.2157659E-01 -1.9869696E+04
 5.9000000E+00  5.0000000E-01  1.0031575E+02 -1.4183996E-01 -1.9874853E+04
 6.1000000E+00  5.0000000E-01  1.0037476E+02 -1.6494291E-01 -1.9880302E+04
 6.3000000E+00  5.0000000E-01  1.0044346E+02 -1.9112310E-01 -1.9886034E+04
 6.5000000E+00  5.0000000E-01  1.0052318E+02 -2.2057691E-01 -1.9892025E+04
 6.7000000E+00  5.0000000E-01  1.0061532E+02 -2.5342968E-01 -1.9898234E+04
 6.9000000E+00  5.0000000E-01  1.0072137E+02 -2.8969665E-01 -1.9904597E+04
 7.1000000E+00  5.0000000E-01  1.0084281E+02 -3.2923351E-01 -1.9911017E+04
 7.3000000E+00  5.0000000E-01  1.0098109E+02 -3.7167622E-01 -1.9917352E+04
 7.5000000E+00  5.0000000E-01  1.0113749E+02 -4.1637106E-01 -1.9923404E+04
 7.7000000E+00  5.0000000E-01  1.0131305E+02 -4.6229831E-01 -1.9928901E+04
 7.9000000E+00  5.0000000E-01  1.0150832E+02 -5.0799617E-01 -1.9933474E+04
 8.1000000E+00  5.0000000E-01  1.0172322E+02 -5.5149607E-01 -1.9936640E+04
 8.3000000E+00  5.0000000E-01  1.0195677E+02 -5.9028571E-01 -1.9937768E+04
 8.5000000E+00  5.0000000E-01  1.0220683E+02 -6.2132147E-01 -1.9936063E+04
 8.7000000E+00  5.0000000E-01  1.0246983E+02 -6.4111578E-01 -1.9930535E+04
 8.9000000E+00  5.0000000E-01  1.0274055E+02 -6.4592433E-01 -1.9919990E+04
 9.1000000E+00  5.0000000E-01  1.0301203E+02 -6.3205052E-01 -1.9903028E+04
 9.3000000E+00  5.0000000E-01  1.0327554E+02 -5.9626661E-01 -1.9878064E+04
 9.5000000E+00  5.0000000E-01  1.0352091E+02 -5.3632139E-01 -1.9843384E+04
 9.7000000E+00  5.0000000E-01  1.0373699E+02 -4.5146715E-01 -1.9797222E+04
 9.9000000E+00  5.0000000E-01  1.0391255E+02 -3.4290260E-01 -1.9737877E+04
 1.0100000E+01  5.0000000E-01  1.0403717E+02 -2.1401085E-01 -1.9663852E+04
 1.0300000E+01  5.0000000E-01  1.0410247E+02 -7.0287329E-02 -1.9573989E+04
 1.0500000E+01  5.0000000E-01  1.0410298E+02  8.1089483E-02 -1.9467601E+04
 1.0700000E+01  5.0000000E-01  1.0403695E+02  2.3200365E-01 -1.9344547E+04
 1.0900000E+01  5.0000000E-01  1.0390650E+02  3.7433505E-01 -1.9205263E+04
 1.1100000E+01  5.0000000E-01  1.0371746E+02  5.0089661E-01 -1.9050721E+04
 1.1300000E+01  5.0000000E-01  1.0347863E+02  6.0619042E-01 -1.8882341E+04
 1.1500000E+01  5.0000000E-01  1.0320078E+02  6.8684958E-01 -1.8701851E+04
 1.1700000E+01  5.0000000E-01  1.0289556E+02  7.4172072E-01 -1.8511143E+04
 1.1900000E+01  5.0000000E-01  1.0257446E+02  7.7163105E-01 -1.8312134E+04
 1.2100000E+01  5.0000000E-01  1.0224798E+02  7.7894390E-01 -1.8106648E+04
 1.2300000E+01  5.0000000E-01  1.0192509E+02  7.6702495E-01 -1.7896337E+04
 1.2500000E+01  5.0000000E-01  1.0161298E+02  7.3972432E-01 -1.7682629E+04
 1.2700000E+01  5.0000000E-01  1.0131698E+02  7.0094427E-01 -1.7466717E+04
 1.2900000E+01  5.0000000E-01  1.0104071E+02  6.5432458E-01 -1.7249556E+04
 1.3100000E+01  5.0000000E-01  1.0078631E+02  6.0304720E-01 -1.7031891E+04
 1.3300000E+01  5.0000000E-01  1.0055471E+02  5.4974358E-01 -1.6814281E+04
 1.3500000E+01  5.0000000E-01  1.0034588E+02  4.9647935E-01 -1.6597128E+04
 1.3700000E+01  5.0000000E-01  1.0015911E+02  4.4479075E-01 -1.6380710E+04
 1.3900000E+01  5.0000000E-01  9.9993228E+01  3.9575037E-01 -1.6165207E+04
 1.4100000E+01  5.0000000E-01  9.9846757E+01  3.5004547E-01 -1.5950723E+04
 1.4300000E+01  5.0000000E-01  9.9718068E+01  3.0805700E-01 -1.5737306E+04
 1.4500000E+01  5.0000000E-01  9.9605479E+01  2.6993261E-01 -1.5524964E+04
 1.4700000E+01  5.0000000E-01  9.9507329E+01  2.3564972E-01 -1.5313676E+04
 1.4900000E+01  5.0000000E-01  9.9422027E+01  2.0506768E-01 -1.5103404E+04
 1.5100000E+01  5.0000000E-01  9.9348083E+01  1.7796913E-01 -1.4894097E+04
 1.5300000E+01  5.0000000E-01  9.9284125E+01  1.5409179E-01 -1.4685694E+04
 1.5500000E+01  5.0000000E-01  9.9228910E+01  1.3315193E-01 -1.4478136E+04
 1.5700000E+01  5.0000000E-01  9.9181318E+01  1.1486118E-01 -1.4271361E+04
 1.5900000E+01  5.0000000E-01  9.9140352E+01  9.8938128E-02 -1.4065306E+04
 1.6100000E+01  5.0000000E-01  9.9105131E+01  8.5115731E-02 -1.3859914E+04
 1.6300000E+01  5.0000000E-01  9.9074880E+01  7.3145819E-02 -1.3655130E+04
 1.6500000E+01  5.0000000E-01  9.9048918E+01  6.2801352E-02 -1.3450902E+04
 1.6700000E+01  5.0000000E-01  9.9026655E+01  5.3877161E-02 -1.3247182E+04
 1.6900000E+01  5.0000000E-01  9.9007575E+01  4.6189636E-02 -1.3043925E+04
 1.7100000E+01  5.0000000E-01  9.8991232E+01  3.9575745E-02 -1.2841091E+04
 1.7300000E+01  5.0000000E-01  9.8977240E+01  3.3891649E-02 -1.2638641E+04
 1.7500000E+01  5.0000000E-01  9.8965265E+01  2.9011103E-02 -1.2436543E+04
 1.7700000E+01  5.0000000E-01  9.8955021E+01  2.4823783E-02 -1.2234766E+04
 1.7900000E+01  5.0000000E-01  9.8946260E+01  2.1233622E-02 -1.2033280E+04
 1.8100000E+01  5.0000000E-01  9.8938769E+01  1.8157220E-02 -1.1832060E+04
 1.8300000E+01  5.0000000E-01  9.8932365E+01  1.5522352E-02 -1.1631083E+04
 1.8500000E+01  5.0000000E-01  9.8926893E+01  1.3266602E-02 -1.1430328E+04
 1.8700000E+01  5.0000000E-01  9.8922218E+01  1.1336127E-02 -1.1229775E+04
 1.8900000E+01  5.0000000E-01  9.8918224E+01  9.6845494E-03 -1.1029407E+04
 1.9100000E+01  5.0000000E-01  9.8914812E+01  8.2719695E-03 -1.0829208E+04
 1.9300000E+01  5.0000000E-01  9.8911899E+01  7.0640986E-03 -1.0629164E+04
 1.9500000E+01  5.0000000E-01  9.8909412E+01  6.0314958E-03 -1.0429261E+04
 1.9700000E+01  5.0000000E-01  9.8907289E+01  5.1489020E-03 -1.0229488E+04