VARIABLES = "X", "Y", "U", "V", "P"
ZONE I=   150, J=    40, K=1, F= POINT
 1.0000000E-01  1.0000000E-01  9.9998707E+01  1.2932404E-03 -2.0148171E+04
 3.0000000E-01  1.0000000E-01  9.9996881E+01  5.3301343E-04 -2.0153263E+04
 5.0000000E-01  1.0000000E-01  9.9996120E+01  2.2748372E-04 -2.0156472E+04
 7.0000000E-01  1.0000000E-01  9.9995816E+01  7.6473060E-05 -2.0158844E+04
 9.0000000E-01  1.0000000E-01  9.9995769E+01 -2.9068205E-05 -2.0160803E+04
 1.1000000E+00  1.0000000E-01  9.9995924E+01 -1.2654082E-04 -2.0162545E+04
 1.3000000E+00  1.0000000E-01  9.9996282E+01 -2.3135600E-04 -2.0164175E+04
 1.5000000E+00  1.0000000E-01  9.9996865E+01 -3.5173488E-04 -2.0165756E+04
 1.7000000E+00  1.0000000E-01  9.9997711E+01 -4.9354238E-04 -2.0167329E+04
 1.9000000E+00  1.0000000E-01  9.9998866E+01 -6.6207166E-04 -2.0168922E+04
 2.1000000E+00  1.0000000E-01  1.0000039E+02 -8.6281283E-04 -2.0170557E+04
 2.3000000E+00  1.0000000E-01  1.0000236E+02 -1.1018569E-03 -2.0172253E+04
 2.5000000E+00  1.0000000E-01  1.0000484E+02 -1.3861643E-03 -2.0174024E+04
 2.7000000E+00  1.0000000E-01  1.0000795E+02 -1.7237854E-03 -2.0175883E+04
 2.9000000E+00  1.0000000E-01  1.0001180E+02 -2.1240718E-03 -2.0177844E+04
 3.1000000E+00  1.0000000E-01  1.0001652E+02 -2.5978936E-03 -2.0179918E+04
 3.3000000E+00  1.0000000E-01  1.0002228E+02 -3.1578725E-03 -2.0182117E+04
 3.5000000E+00  1.0000000E-01  1.0002926E+02 -3.8186339E-03 -2.0184452E+04
 3.7000000E+00  1.0000000E-01  1.0003767E+02 -4.5970771E-03 -2.0186934E+04
 3.9000000E+00  1.0000000E-01  1.0004778E+02 -5.5126625E-03 -2.0189577E+04
 4.1000000E+00  1.0000000E-01  1.0005988E+02 -6.5877074E-03 -2.0192391E+04
 4.3000000E+00  1.0000000E-01  1.0007432E+02 -7.8476797E-03 -2.0195389E+04
 4.5000000E+00  1.0000000E-01  1.0009149E+02 -9.3214716E-03 -2.0198582E+04
 4.7000000E+00  1.0000000E-01  1.0011185E+02 -1.1041625E-02 -2.0201982E+04
 4.9000000E+00  1.0000000E-01  1.0013594E+02 -1.3044473E-02 -2.0205599E+04
 5.1000000E+00  1.0000000E-01  1.0016435E+02 -1.5370138E-02 -2.0209443E+04
 5.3000000E+00  1.0000000E-01  1.0019778E+02 -1.8062317E-02 -2.0213521E+04
 5.5000000E+00  1.0000000E-01  1.0023701E+02 -2.1167763E-02 -2.0217837E+04
 5.7000000E+00  1.0000000E-01  1.0028292E+02 -2.4735316E-02 -2.0222391E+04
 5.9000000E+00  1.0000000E-01  1.0033647E+02 -2.8814349E-02 -2.0227175E+04
 6.1000000E+00  1.0000000E-01  1.0039873E+02 -3.3452414E-02 -2.0232173E+04
 6.3000000E+00  1.0000000E-01  1.0047088E+02 -3.8691868E-02 -2.0237355E+04
 6.5000000E+00  1.0000000E-01  1.0055413E+02 -4.4565229E-02 -2.0242675E+04
 6.7000000E+00  1.0000000E-01  1.0064979E+02 -5.1088989E-02 -2.0248062E+04
 6.9000000E+00  1.0000000E-01  1.0075913E+02 -5.8255675E-02 -2.0253417E+04
 7.1000000E+00  1.0000000E-01  1.0088341E+02 -6.6024018E-02 -2.0258597E+04
 7.3000000E+00  1.0000000E-01  1.0102374E+02 -7.4307294E-02 -2.0263412E+04
 7.5000000E+00  1.0000000E-01  1.0118101E+02 -8.2960204E-02 -2.0267604E+04
 7.7000000E+00  1.0000000E-01  1.0135574E+02 -9.1765148E-02 -2.0270836E+04
 7.9000000E+00  1.0000000E-01  1.0154792E+02 -1.0041939E-01 -2.0272670E+04
 8.1000000E+00  1.0000000E-01  1.0175687E+02 -1.0852541E-01 -2.0272554E+04
 8.3000000E+00  1.0000000E-01  1.0198098E+02 -1.1558762E-01 -2.0269796E+04
 8.5000000E+00  1.0000000E-01  1.0221759E+02 -1.2101936E-01 -2.0263556E+04
 8.7000000E+00  1.0000000E-01  1.0246277E+02 -1.2416436E-01 -2.0252830E+04
 8.9000000E+00  1.0000000E-01  1.0271127E+02 -1.2433625E-01 -2.0236452E+04
 9.1000000E+00  1.0000000E-01  1.0295648E+02 -1.2087799E-01 -2.0213109E+04
 9.3000000E+00  1.0000000E-01  1.0319060E+02 -1.1323927E-01 -2.0181369E+04
 9.5000000E+00  1.0000000E-01  1.0340491E+02 -1.0106501E-01 -2.0139737E+04
 9.7000000E+00  1.0000000E-01  1.0359025E+02 -8.4282555E-02 -2.0086725E+04
 9.9000000E+00  1.0000000E-01  1.0373771E+02 -6.3170162E-02 -2.0020950E+04
 1.0100000E+01  1.0000000E-01  1.0383926E+02 -3.8388254E-02 -1.9941226E+04
 1.0300000E+01  1.0000000E-01  1.0388861E+02 -1.0958603E-02 -1.9846673E+04
 1.0500000E+01  1.0000000E-01  1.0388176E+02  1.7813829E-02 -1.9736792E+04
 1.0700000E+01  1.0000000E-01  1.0381747E+02  4.6468545E-02 -1.9611520E+04
 1.0900000E+01  1.0000000E-01  1.0369746E+02  7.3546093E-02 -1.9471246E+04
 1.1100000E+01  1.0000000E-01  1.0352617E+02  9.7745106E-02 -1.9316782E+04
 1.1300000E+01  1.0000000E-01  1.0331037E+02  1.1805111E-01 -1.9149297E+04
 1.1500000E+01  1.0000000E-01  1.0305850E+02  1.3381599E-01 -1.8970224E+04
 1.1700000E+01  1.0000000E-01  1.0277991E+02  1.4477975E-01 -1.8781154E+04
 1.1900000E+01  1.0000000E-01  1.0248409E+02  1.5103931E-01 -1.8583736E+04
 1.2100000E+01  1.0000000E-01  1.0218007E+02  1.5297921E-01 -1.8379576E+04
 1.2300000E+01  1.0000000E-01  1.0187591E+02  1.5118291E-01 -1.8170176E+04
 1.2500000E+01  1.0000000E-01  1.0157838E+02  1.4634221E-01 -1.7956876E+04
 1.2700000E+01  1.0000000E-01  1.0129286E+02  1.3917781E-01 -1.7740835E+04
 1.2900000E+01  1.0000000E-01  1.0102331E+02  1.3037819E-01 -1.7523021E+04
 1.3100000E+01  1.0000000E-01  1.0077237E+02  1.2055862E-01 -1.7304214E+04
 1.3300000E+01  1.0000000E-01  1.0054157E+02  1.1023885E-01 -1.7085028E+04
 1.3500000E+01  1.0000000E-01  1.0033150E+02  9.9835723E-02 -1.6865929E+04
 1.3700000E+01  1.0000000E-01  1.0014200E+02  8.9666469E-02 -1.6647255E+04
 1.3900000E+01  1.0000000E-01  9.9972372E+01  7.9958654E-02 -1.6429245E+04
 1.4100000E+01  1.0000000E-01  9.9821549E+01  7.0863532E-02 -1.6212054E+04
 1.4300000E+01  1.0000000E-01  9.9688215E+01  6.2470373E-02 -1.5995775E+04
 1.4500000E+01  1.0000000E-01  9.9570925E+01  5.4820226E-02 -1.5780452E+04
 1.4700000E+01  1.0000000E-01  9.9468186E+01  4.7918200E-02 -1.5566094E+04
 1.4900000E+01  1.0000000E-01  9.9378524E+01  4.1743850E-02 -1.5352686E+04
 1.5100000E+01  1.0000000E-01  9.9300521E+01  3.6259606E-02 -1.5140193E+04
 1.5300000E+01  1.0000000E-01  9.9232844E+01  3.1417364E-02 -1.4928571E+04
 1.5500000E+01  1.0000000E-01  9.9174263E+01  2.7163454E-02 -1.4717769E+04
 1.5700000E+01  1.0000000E-01  9.9123657E+01  2.3442274E-02 -1.4507732E+04
 1.5900000E+01  1.0000000E-01  9.9080016E+01  2.0198825E-02 -1.4298405E+04
 1.6100000E+01  1.0000000E-01  9.9042437E+01  1.7380410E-02 -1.4089733E+04
 1.6300000E+01  1.0000000E-01  9.9010119E+01  1.4937687E-02 -1.3881664E+04
 1.6500000E+01  1.0000000E-01  9.8982356E+01  1.2825249E-02 -1.3674149E+04
 1.6700000E+01  1.0000000E-01  9.8958529E+01  1.1001874E-02 -1.3467139E+04
 1.6900000E+01  1.0000000E-01  9.8938097E+01  9.4305296E-03 -1.3260592E+04
 1.7100000E+01  1.0000000E-01  9.8920588E+01  8.0782336E-03 -1.3054466E+04
 1.7300000E+01  1.0000000E-01  9.8905594E+01  6.9158121E-03 -1.2848726E+04
 1.7500000E+01  1.0000000E-01  9.8892760E+01  5.9176069E-03 -1.2643337E+04
 1.7700000E+01  1.0000000E-01  9.8881782E+01  5.0611566E-03 -1.2438267E+04
 1.7900000E+01  1.0000000E-01  9.8872394E+01  4.3268750E-03 -1.2233489E+04
 1.8100000E+01  1.0000000E-01  9.8864369E+01  3.6977380E-03 -1.2028977E+04
 1.8300000E+01  1.0000000E-01  9.8857512E+01  3.1589885E-03 -1.1824708E+04
 1.8500000E+01  1.0000000E-01  9.8851655E+01  2.6978639E-03 -1.1620659E+04
 1.8700000E+01  1.0000000E-01  9.8846654E+01  2.3033471E-03 -1.1416812E+04
 1.8900000E+01  1.0000000E-01  9.8842385E+01  1.9659438E-03 -1.1213150E+04
 1.9100000E+01  1.0000000E-01  9.8838741E+01  1.6774824E-03 -1.1009655E+04
 1.9300000E+01  1.0000000E-01  9.8835633E+01  1.4309383E-03 -1.0806315E+04
 1.9500000E+01  1.0000000E-01  9.8832982E+01  1.2202786E-03 -1.0603115E+04
 1.9700000E+01  1.0000000E-01  9.8830721E+01  1.0403266E-03 -1.0400043E+04
 1.9900000E+01  1.0000000E-01  9.8828794E+01  8.8664293E-04 -1.0197090E+04
 2.0100000E+01  1.0000000E-01  9.8827152E+01  7.5542350E-04 -9.9942437E+03
 2.0300000E+01  1.0000000E-01  9.8825753E+01  6.4340981E-04 -9.7914966E+03
 2.0500000E+01  1.0000000E-01  9.8824562E+01  5.4781202E-04 -9.5888400E+03
 2.0700000E+01  1.0000000E-01  9.8823548E+01  4.6624238E-04 -9.3862666E+03
 2.0900000E+01  1.0000000E-01  9.8822685E+01  3.9665804E-04 -9.1837694E+03
 2.1100000E+01  1.0000000E-01  9.8821951E+01  3.3731179E-04 -8.9813421E+03
 2.1300000E+01  1.0000000E-01  9.8821327E+01  2.8670955E-04 -8.7789791E+03
 2.1500000E+01  1.0000000E-01  9.8820797E+01  2.4357387E-04 -8.5766752E+03
 2.1700000E+01  1.0000000E-01  9.8820346E+01  2.0681289E-04 -8.3744255E+03
 2.1900000E+01  1.0000000E-01  9.8819964E+01  1.7549358E-04 -8.1722258E+03
 2.2100000E+01  1.0000000E-01  9.8819640E+01  1.4881868E-04 -7.9700719E+03
 2.2300000E+01  1.0000000E-01  9.8819365E+01  1.2610700E-04 -7.7679603E+03
 2.2500000E+01  1.0000000E-01  9.8819132E+01  1.0677659E-04 -7.5658875E+03
 2.2700000E+01  1.0000000E-01  9.8818935E+01  9.0330487E-05 -7.3638504E+03
 2.2900000E+01  1.0000000E-01  9.8818768E+01  7.6344348E-05 -7.1618463E+03
 2.3100000E+01  1.0000000E-01  9.8818627E+01  6.4455733E-05 -6.9598725E+03
 2.3300000E+01  1.0000000E-01  9.8818509E+01  5.4355148E-05 -6.7579266E+03
 2.3500000E+01  1.0000000E-01  9.8818408E+01  4.5778492E-05 -6.5560064E+03
 2.3700000E+01  1.0000000E-01  9.8818324E+01  3.8500338E-05 -6.3541098E+03
 2.3900000E+01  1.0000000E-01  9.8818253E+01  3.2328279E-05 -6.1522351E+03
 2.4100000E+01  1.0000000E-01  9.8818194E+01  2.7098180E-05 -5.9503805E+03
 2.4300000E+01  1.0000000E-01  9.8818144E+01  2.2669945E-05 -5.7485444E+03
 2.4500000E+01  1.0000000E-01  9.8818103E+01  1.8924076E-05 -5.5467254E+03
 2.4700000E+01  1.0000000E-01  9.8818068E+01  1.5758776E-05 -5.3449221E+03
 2.4900000E+01  1.0000000E-01  9.8818039E+01  1.3087103E-05 -5.1431332E+03
 2.5100000E+01  1.0000000E-01  9.8818015E+01  1.0835007E-05 -4.9413577E+03
 2.5300000E+01  1.0000000E-01  9.8817995E+01  8.9394576E-06 -4.7395944E+03
 2.5500000E+01  1.0000000E-01  9.8817979E+01  7.3466033E-06 -4.5378423E+03
 2.5700000E+01  1.0000000E-01  9.8817966E+01  6.0106469E-06 -4.3361006E+03
 2.5900000E+01  1.0000000E-01  9.8817955E+01  4.8925947E-06 -4.1343684E+03
 2.6100000E+01  1.0000000E-01  9.8817946E+01  3.9591998E-06 -3.9326450E+03
 2.6300000E+01  1.0000000E-01  9.8817939E+01  3.1821826E-06 -3.7309295E+03
 2.6500000E+01  1.0000000E-01  9.8817933E+01  2.5375258E-06 -3.5292214E+03
 2.6700000E+01  1.0000000E-01  9.8817929E+01  2.0048265E-06 -3.3275200E+03
 2.6900000E+01  1.0000000E-01  9.8817925E+01  1.5667152E-06 -3.1258247E+03
 2.7100000E+01  1.0000000E-01  9.8817922E+01  1.2084043E-06 -2.9241350E+03
 2.7300000E+01  1.0000000E-01  9.8817920E+01  9.1734041E-07 -2.7224504E+03
 2.7500000E+01  1.0000000E-01  9.8817919E+01  6.8282934E-07 -2.5207704E+03
 2.7700000E+01  1.0000000E-01  9.8817917E+01  4.9577475E-07 -2.3190945E+03
 2.7900000E+01  1.0000000E-01  9.8817916E+01  3.4849605E-07 -2.1174223E+03
 2.8100000E+01  1.0000000E-01  9.8817916E+01  2.3450327E-07 -1.9157535E+03
 2.8300000E+01  1.0000000E-01  9.8817916E+01  1.4816508E-07 -1.7140877E+03
 2.8500000E+01  1.0000000E-01  9.8817915E+01  8.4704971E-08 -1.5124244E+03
 2.8700000E+01  1.0000000E-01  9.8817915E+01  4.0102227E-08 -1.3107633E+03
 2.8900000E+01  1.0000000E-01  9.8817915E+01  1.0792974E-08 -1.1091042E+03
 2.9100000E+01  1.0000000E-01  9.8817915E+01 -6.3151423E-09 -9.0744668E+02
 2.9300000E+01  1.0000000E-01  9.8817915E+01 -1.3958963E-08 -7.0579048E+02
 2.9500000E+01  1.0000000E-01  9.8817915E+01 -1.4531979E-08 -5.0413532E+02
 2.9700000E+01  1.0000000E-01  9.8817915E+01 -1.0097984E-08 -3.0248088E+02
 2.9900000E+01  1.0000000E-01  9.8817915E+01 -2.9641530E-09 -1.0082688E+02
 1.0000000E-01  3.0000000E-01  1.0000048E+02  2.1077994E-03 -2.0153078E+04
 3.0000000E-01  3.0000000E-01  1.0000095E+02  1.0771870E-03 -2.0155147E+04
 5.0000000E-01  3.0000000E-01  1.0000086E+02  5.2736149E-04 -2.0157307E+04
 7.0000000E-01  3.0000000E-01  1.0000076E+02  1.8394714E-04 -2.0159258E+04
 9.0000000E-01  3.0000000E-01  1.0000077E+02 -9.5276509E-05 -2.0161020E+04
 1.1000000E+00  3.0000000E-01  1.0000092E+02 -3.7228743E-04 -2.0162657E+04
 1.3000000E+00  3.0000000E-01  1.0000126E+02 -6.7851689E-04 -2.0164225E+04
 1.5000000E+00  3.0000000E-01  1.0000180E+02 -1.0337946E-03 -2.0165765E+04
 1.7000000E+00  3.0000000E-01  1.0000260E+02 -1.4539310E-03 -2.0167308E+04
 1.9000000E+00  3.0000000E-01  1.0000370E+02 -1.9540374E-03 -2.0168879E+04
 2.1000000E+00  3.0000000E-01  1.0000515E+02 -2.5501803E-03 -2.0170497E+04
 2.3000000E+00  3.0000000E-01  1.0000703E+02 -3.2603646E-03 -2.0172178E+04
 2.5000000E+00  3.0000000E-01  1.0000942E+02 -4.1052508E-03 -2.0173935E+04
 2.7000000E+00  3.0000000E-01  1.0001242E+02 -5.1087802E-03 -2.0175783E+04
 2.9000000E+00  3.0000000E-01  1.0001613E+02 -6.2987899E-03 -2.0177732E+04
 3.1000000E+00  3.0000000E-01  1.0002069E+02 -7.7076578E-03 -2.0179794E+04
 3.3000000E+00  3.0000000E-01  1.0002626E+02 -9.3729983E-03 -2.0181981E+04
 3.5000000E+00  3.0000000E-01  1.0003302E+02 -1.1338417E-02 -2.0184305E+04
 3.7000000E+00  3.0000000E-01  1.0004118E+02 -1.3654327E-02 -2.0186776E+04
 3.9000000E+00  3.0000000E-01  1.0005099E+02 -1.6378814E-02 -2.0189407E+04
 4.1000000E+00  3.0000000E-01  1.0006275E+02 -1.9578536E-02 -2.0192209E+04
 4.3000000E+00  3.0000000E-01  1.0007679E+02 -2.3329626E-02 -2.0195196E+04
 4.5000000E+00  3.0000000E-01  1.0009350E+02 -2.7718536E-02 -2.0198378E+04
 4.7000000E+00  3.0000000E-01  1.0011333E+02 -3.2842754E-02 -2.0201767E+04
 4.9000000E+00  3.0000000E-01  1.0013681E+02 -3.8811279E-02 -2.0205376E+04
 5.1000000E+00  3.0000000E-01  1.0016454E+02 -4.5744694E-02 -2.0209214E+04
 5.3000000E+00  3.0000000E-01  1.0019719E+02 -5.3774622E-02 -2.0213289E+04
 5.5000000E+00  3.0000000E-01  1.0023555E+02 -6.3042280E-02 -2.0217608E+04
 5.7000000E+00  3.0000000E-01  1.0028048E+02 -7.3695752E-02 -2.0222171E+04
 5.9000000E+00  3.0000000E-01  1.0033297E+02 -8.5885511E-02 -2.0226974E+04
 6.1000000E+00  3.0000000E-01  1.0039408E+02 -9.9757587E-02 -2.0232005E+04
 6.3000000E+00  3.0000000E-01  1.0046499E+02 -1.1544371E-01 -2.0237238E+04
 6.5000000E+00  3.0000000E-01  1.0054696E+02 -1.3304760E-01 -2.0242632E+04
 6.7000000E+00  3.0000000E-01  1.0064133E+02 -1.5262669E-01 -2.0248127E+04
 6.9000000E+00  3.0000000E-01  1.0074944E+02 -1.7416839E-01 -2.0253629E+04
 7.1000000E+00  3.0000000E-01  1.0087261E+02 -1.9756055E-01 -2.0259011E+04
 7.3000000E+00  3.0000000E-01  1.0101206E+02 -2.2255611E-01 -2.0264094E+04
 7.5000000E+00  3.0000000E-01  1.0116881E+02 -2.4873289E-01 -2.0268637E+04
 7.7000000E+00  3.0000000E-01  1.0134355E+02 -2.7545092E-01 -2.0272319E+04
 7.9000000E+00  3.0000000E-01  1.0153644E+02 -3.0181162E-01 -2.0274722E+04
 8.1000000E+00  3.0000000E-01  1.0174699E+02 -3.2662568E-01 -2.0275311E+04
 8.3000000E+00  3.0000000E-01  1.0197379E+02 -3.4839936E-01 -2.0273409E+04
 8.5000000E+00  3.0000000E-01  1.0221432E+02 -3.6535117E-01 -2.0268183E+04
 8.7000000E+00  3.0000000E-01  1.0246478E+02 -3.7547267E-01 -2.0258629E+04
 8.9000000E+00  3.0000000E-01  1.0271990E+02 -3.7664540E-01 -2.0243567E+04
 9.1000000E+00  3.0000000E-01  1.0297294E+02 -3.6682081E-01 -2.0221648E+04
 9.3000000E+00  3.0000000E-01  1.0321578E+02 -3.4425934E-01 -2.0191388E+04
 9.5000000E+00  3.0000000E-01  1.0343924E+02 -3.0780860E-01 -2.0151219E+04
 9.7000000E+00  3.0000000E-01  1.0363354E+02 -2.5718211E-01 -2.0099566E+04
 9.9000000E+00  3.0000000E-01  1.0378900E+02 -1.9318343E-01 -2.0034945E+04
 1.0100000E+01  3.0000000E-01  1.0389688E+02 -1.1781466E-01 -1.9956080E+04
 1.0300000E+01  3.0000000E-01  1.0395022E+02 -3.4219319E-02 -1.9862010E+04
 1.0500000E+01  3.0000000E-01  1.0394459E+02  5.3559968E-02 -1.9752186E+04
 1.0700000E+01  3.0000000E-01  1.0387861E+02  1.4098506E-01 -1.9626534E+04
 1.0900000E+01  3.0000000E-01  1.0375413E+02  2.2352049E-01 -1.9485469E+04
 1.1100000E+01  3.0000000E-01  1.0357606E+02  2.9713327E-01 -1.9329864E+04
 1.1300000E+01  3.0000000E-01  1.0335182E+02  3.5870045E-01 -1.9160975E+04
 1.1500000E+01  3.0000000E-01  1.0309060E+02  4.0625596E-01 -1.8980337E+04
 1.1700000E+01  3.0000000E-01  1.0280248E+02  4.3905088E-01 -1.8789643E+04
 1.1900000E+01  3.0000000E-01  1.0249762E+02  4.5744536E-01 -1.8590629E+04
 1.2100000E+01  3.0000000E-01  1.0218553E+02  4.6268175E-01 -1.8384974E+04
 1.2300000E+01  3.0000000E-01  1.0187457E+02  4.5660097E-01 -1.8174227E+04
 1.2500000E+01  3.0000000E-01  1.0157166E+02  4.4135789E-01 -1.7959759E+04
 1.2700000E+01  3.0000000E-01  1.0128217E+02  4.1917587E-01 -1.7742737E+04
 1.2900000E+01  3.0000000E-01  1.0100995E+02  3.9216129E-01 -1.7524123E+04
 1.3100000E+01  3.0000000E-01  1.0075748E+02  3.6218233E-01 -1.7304686E+04
 1.3300000E+01  3.0000000E-01  1.0052608E+02  3.3080564E-01 -1.7085018E+04
 1.3500000E+01  3.0000000E-01  1.0031615E+02  2.9927849E-01 -1.6865563E+04
 1.3700000E+01  3.0000000E-01  1.0012733E+02  2.6854263E-01 -1.6646638E+04
 1.3900000E+01  3.0000000E-01  9.9958771E+01  2.3926744E-01 -1.6428461E+04
 1.4100000E+01  3.0000000E-01  9.9809256E+01  2.1189233E-01 -1.6211169E+04
 1.4300000E+01  3.0000000E-01  9.9677360E+01  1.8667136E-01 -1.5994838E+04
 1.4500000E+01  3.0000000E-01  9.9561555E+01  1.6371542E-01 -1.5779500E+04
 1.4700000E+01  3.0000000E-01  9.9460287E+01  1.4302943E-01 -1.5565154E+04
 1.4900000E+01  3.0000000E-01  9.9372038E+01  1.2454362E-01 -1.5351776E+04
 1.5100000E+01  3.0000000E-01  9.9295362E+01  1.0813871E-01 -1.5139325E+04
 1.5300000E+01  3.0000000E-01  9.9228912E+01  9.3665398E-02 -1.4927753E+04
 1.5500000E+01  3.0000000E-01  9.9171449E+01  8.0959051E-02 -1.4717004E+04
 1.5700000E+01  3.0000000E-01  9.9121851E+01  6.9850315E-02 -1.4507021E+04
 1.5900000E+01  3.0000000E-01  9.9079111E+01  6.0172496E-02 -1.4297748E+04
 1.6100000E+01  3.0000000E-01  9.9042330E+01  5.1766447E-02 -1.4089129E+04
 1.6300000E+01  3.0000000E-01  9.9010716E+01  4.4483554E-02 -1.3881110E+04
 1.6500000E+01  3.0000000E-01  9.8983571E+01  3.8187355E-02 -1.3673641E+04
 1.6700000E+01  3.0000000E-01  9.8960284E+01  3.2754166E-02 -1.3466675E+04
 1.6900000E+01  3.0000000E-01  9.8940322E+01  2.8073034E-02 -1.3260168E+04
 1.7100000E+01  3.0000000E-01  9.8923221E+01  2.4045249E-02 -1.3054080E+04
 1.7300000E+01  3.0000000E-01  9.8908580E+01  2.0583582E-02 -1.2848374E+04
 1.7500000E+01  3.0000000E-01  9.8896052E+01  1.7611376E-02 -1.2643016E+04
 1.7700000E+01  3.0000000E-01  9.8885337E+01  1.5061566E-02 -1.2437975E+04
 1.7900000E+01  3.0000000E-01  9.8876176E+01  1.2875707E-02 -1.2233223E+04
 1.8100000E+01  3.0000000E-01  9.8868346E+01  1.1003020E-02 -1.2028734E+04
 1.8300000E+01  3.0000000E-01  9.8861657E+01  9.3995064E-03 -1.1824486E+04
 1.8500000E+01  3.0000000E-01  9.8855944E+01  8.0271253E-03 -1.1620457E+04
 1.8700000E+01  3.0000000E-01  9.8851066E+01  6.8530492E-03 -1.1416628E+04
 1.8900000E+01  3.0000000E-01  9.8846903E+01  5.8489931E-03 -1.1212981E+04
 1.9100000E+01  3.0000000E-01  9.8843350E+01  4.9906184E-03 -1.1009501E+04
 1.9300000E+01  3.0000000E-01  9.8840319E+01  4.2570060E-03 -1.0806174E+04
 1.9500000E+01  3.0000000E-01  9.8837734E+01  3.6301928E-03 -1.0602986E+04
 1.9700000E+01  3.0000000E-01  9.8835531E+01  3.0947662E-03 -1.0399925E+04
 1.9900000E+01  3.0000000E-01  9.8833652E+01  2.6375116E-03 -1.0196982E+04
 2.0100000E+01  3.0000000E-01  9.8832052E+01  2.2471051E-03 -9.9941447E+03
 2.0300000E+01  3.0000000E-01  9.8830689E+01  1.9138481E-03 -9.7914059E+03
 2.0500000E+01  3.0000000E-01  9.8829528E+01  1.6294373E-03 -9.5887569E+03
 2.0700000E+01  3.0000000E-01  9.8828540E+01  1.3867669E-03 -9.3861903E+03
 2.0900000E+01  3.0000000E-01  9.8827699E+01  1.1797576E-03 -9.1836993E+03
 2.1100000E+01  3.0000000E-01  9.8826984E+01  1.0032099E-03 -8.9812778E+03
 2.1300000E+01  3.0000000E-01  9.8826376E+01  8.5267784E-04 -8.7789200E+03
 2.1500000E+01  3.0000000E-01  9.8825860E+01  7.2436038E-04 -8.5766209E+03
 2.1700000E+01  3.0000000E-01  9.8825421E+01  6.1500876E-04 -8.3743756E+03
 2.1900000E+01  3.0000000E-01  9.8825049E+01  5.2184661E-04 -8.1721799E+03
 2.2100000E+01  3.0000000E-01  9.8824733E+01  4.4250166E-04 -7.9700297E+03
 2.2300000E+01  3.0000000E-01  9.8824465E+01  3.7494717E-04 -7.7679214E+03
 2.2500000E+01  3.0000000E-01  9.8824239E+01  3.1745187E-04 -7.5658517E+03
 2.2700000E+01  3.0000000E-01  9.8824047E+01  2.6853714E-04 -7.3638175E+03
 2.2900000E+01  3.0000000E-01  9.8823885E+01  2.2694023E-04 -7.1618160E+03
 2.3100000E+01  3.0000000E-01  9.8823748E+01  1.9158292E-04 -6.9598445E+03
 2.3300000E+01  3.0000000E-01  9.8823633E+01  1.6154465E-04 -6.7579008E+03
 2.3500000E+01  3.0000000E-01  9.8823535E+01  1.3603961E-04 -6.5559827E+03
 2.3700000E+01  3.0000000E-01  9.8823453E+01  1.1439708E-04 -6.3540880E+03
 2.3900000E+01  3.0000000E-01  9.8823385E+01  9.6044688E-05 -6.1522150E+03
 2.4100000E+01  3.0000000E-01  9.8823327E+01  8.0494048E-05 -5.9503620E+03
 2.4300000E+01  3.0000000E-01  9.8823279E+01  6.7328486E-05 -5.7485274E+03
 2.4500000E+01  3.0000000E-01  9.8823238E+01  5.6192598E-05 -5.5467097E+03
 2.4700000E+01  3.0000000E-01  9.8823205E+01  4.6783313E-05 -5.3449076E+03
 2.4900000E+01  3.0000000E-01  9.8823177E+01  3.8842194E-05 -5.1431199E+03
 2.5100000E+01  3.0000000E-01  9.8823154E+01  3.2148955E-05 -4.9413454E+03
 2.5300000E+01  3.0000000E-01  9.8823134E+01  2.6515869E-05 -4.7395831E+03
 2.5500000E+01  3.0000000E-01  9.8823119E+01  2.1782961E-05 -4.5378320E+03
 2.5700000E+01  3.0000000E-01  9.8823106E+01  1.7813975E-05 -4.3360911E+03
 2.5900000E+01  3.0000000E-01  9.8823095E+01  1.4492885E-05 -4.1343597E+03
 2.6100000E+01  3.0000000E-01  9.8823087E+01  1.1720909E-05 -3.9326370E+03
 2.6300000E+01  3.0000000E-01  9.8823080E+01  9.4139900E-06 -3.7309222E+03
 2.6500000E+01  3.0000000E-01  9.8823074E+01  7.5006326E-06 -3.5292147E+03
 2.6700000E+01  3.0000000E-01  9.8823070E+01  5.9200457E-06 -3.3275139E+03
 2.6900000E+01  3.0000000E-01  9.8823067E+01  4.6205409E-06 -3.1258192E+03
 2.7100000E+01  3.0000000E-01  9.8823064E+01  3.5581794E-06 -2.9241300E+03
 2.7300000E+01  3.0000000E-01  9.8823062E+01  2.6956237E-06 -2.7224458E+03
 2.7500000E+01  3.0000000E-01  9.8823061E+01  2.0011434E-06 -2.5207662E+03
 2.7700000E+01  3.0000000E-01  9.8823060E+01  1.4477777E-06 -2.3190908E+03
 2.7900000E+01  3.0000000E-01  9.8823059E+01  1.0126265E-06 -2.1174190E+03
 2.8100000E+01  3.0000000E-01  9.8823058E+01  6.7622085E-07 -1.9157506E+03
 2.8300000E+01  3.0000000E-01  9.8823058E+01  4.2195276E-07 -1.7140851E+03
 2.8500000E+01  3.0000000E-01  9.8823058E+01  2.3564833E-07 -1.5124221E+03
 2.8700000E+01  3.0000000E-01  9.8823058E+01  1.0517594E-07 -1.3107614E+03
 2.8900000E+01  3.0000000E-01  9.8823058E+01  2.0058962E-08 -1.1091026E+03
 2.9100000E+01  3.0000000E-01  9.8823058E+01 -2.8803961E-08 -9.0744540E+02
 2.9300000E+01  3.0000000E-01  9.8823058E+01 -4.9401500E-08 -7.0578951E+02
 2.9500000E+01  3.0000000E-01  9.8823058E+01 -4.8826151E-08 -5.0413462E+02
 2.9700000E+01  3.0000000E-01  9.8823058E+01 -3.3484589E-08 -3.0248046E+02
 2.9900000E+01  3.0000000E-01  9.8823058E+01 -9.9057564E-09 -1.0082673E+02
 1.0000000E-01  5.0000000E-01  1.0000019E+02  1.4436808E-03 -2.0155918E+04
 3.0000000E-01  5.0000000E-01  1.0000041E+02  1.0507292E-03 -2.0156938E+04
 5.0000000E-01  5.0000000E-01  1.0000043E+02  6.2005443E-04 -2.0158353E+04
 7.0000000E-01  5.0000000E-01  1.0000039E+02  2.2722643E-04 -2.0159861E+04
 9.0000000E-01  5.0000000E-01  1.0000041E+02 -1.6370082E-04 -2.0161362E+04
 1.1000000E+00  5.0000000E-01  1.0000054E+02 -5.8882309E-04 -2.0162838E+04
 1.3000000E+00  5.0000000E-01  1.0000082E+02 -1.0766421E-03 -2.0164301E+04
 1.5000000E+00  5.0000000E-01  1.0000129E+02 -1.6510142E-03 -2.0165769E+04
 1.7000000E+00  5.0000000E-01  1.0000199E+02 -2.3343754E-03 -2.0167260E+04
 1.9000000E+00  5.0000000E-01  1.0000297E+02 -3.1500011E-03 -2.0168790E+04
 2.1000000E+00  5.0000000E-01  1.0000428E+02 -4.1235509E-03 -2.0170374E+04
 2.3000000E+00  5.0000000E-01  1.0000600E+02 -5.2842272E-03 -2.0172026E+04
 2.5000000E+00  5.0000000E-01  1.0000820E+02 -6.6657656E-03 -2.0173757E+04
 2.7000000E+00  5.0000000E-01  1.0001096E+02 -8.3073836E-03 -2.0175580E+04
 2.9000000E+00  5.0000000E-01  1.0001440E+02 -1.0254759E-02 -2.0177506E+04
 3.1000000E+00  5.0000000E-01  1.0001865E+02 -1.2561083E-02 -2.0179545E+04
 3.3000000E+00  5.0000000E-01  1.0002385E+02 -1.5288209E-02 -2.0181709E+04
 3.5000000E+00  5.0000000E-01  1.0003018E+02 -1.8507907E-02 -2.0184010E+04
 3.7000000E+00  5.0000000E-01  1.0003783E+02 -2.2303238E-02 -2.0186458E+04
 3.9000000E+00  5.0000000E-01  1.0004706E+02 -2.6770014E-02 -2.0189065E+04
 4.1000000E+00  5.0000000E-01  1.0005813E+02 -3.2018337E-02 -2.0191844E+04
 4.3000000E+00  5.0000000E-01  1.0007138E+02 -3.8174159E-02 -2.0194807E+04
 4.5000000E+00  5.0000000E-01  1.0008718E+02 -4.5380774E-02 -2.0197966E+04
 4.7000000E+00  5.0000000E-01  1.0010596E+02 -5.3800147E-02 -2.0201335E+04
 4.9000000E+00  5.0000000E-01  1.0012824E+02 -6.3613870E-02 -2.0204925E+04
 5.1000000E+00  5.0000000E-01  1.0015460E+02 -7.5023533E-02 -2.0208749E+04
 5.3000000E+00  5.0000000E-01  1.0018570E+02 -8.8250131E-02 -2.0212817E+04
 5.5000000E+00  5.0000000E-01  1.0022230E+02 -1.0353208E-01 -2.0217137E+04
 5.7000000E+00  5.0000000E-01  1.0026529E+02 -1.2112118E-01 -2.0221715E+04
 5.9000000E+00  5.0000000E-01  1.0031562E+02 -1.4127585E-01 -2.0226553E+04
 6.1000000E+00  5.0000000E-01  1.0037439E+02 -1.6425045E-01 -2.0231643E+04
 6.3000000E+00  5.0000000E-01  1.0044281E+02 -1.9027977E-01 -2.0236970E+04
 6.5000000E+00  5.0000000E-01  1.0052218E+02 -2.1955709E-01 -2.0242507E+04
 6.7000000E+00  5.0000000E-01  1.0061390E+02 -2.5220444E-01 -2.0248204E+04
 6.9000000E+00  5.0000000E-01  1.0071944E+02 -2.8823367E-01 -2.0253990E+04
 7.1000000E+00  5.0000000E-01  1.0084027E+02 -3.2749711E-01 -2.0259760E+04
 7.3000000E+00  5.0000000E-01  1.0097782E+02 -3.6962756E-01 -2.0265361E+04
 7.5000000E+00  5.0000000E-01  1.0113338E+02 -4.1396864E-01 -2.0270586E+04
 7.7000000E+00  5.0000000E-01  1.0130793E+02 -4.5949880E-01 -2.0275150E+04
 7.9000000E+00  5.0000000E-01  1.0150203E+02 -5.0475570E-01 -2.0278673E+04
 8.1000000E+00  5.0000000E-01  1.0171557E+02 -5.4777201E-01 -2.0280656E+04
 8.3000000E+00  5.0000000E-01  1.0194756E+02 -5.8603900E-01 -2.0280456E+04
 8.5000000E+00  5.0000000E-01  1.0219583E+02 -6.1651961E-01 -2.0277261E+04
 8.7000000E+00  5.0000000E-01  1.0245680E+02 -6.3573627E-01 -2.0270067E+04
 8.9000000E+00  5.0000000E-01  1.0272526E+02 -6.3995840E-01 -2.0257668E+04
 9.1000000E+00  5.0000000E-01  1.0299422E+02 -6.2550689E-01 -2.0238653E+04
 9.3000000E+00  5.0000000E-01  1.0325498E+02 -5.8917466E-01 -2.0211429E+04
 9.5000000E+00  5.0000000E-01  1.0349736E+02 -5.2873332E-01 -2.0174280E+04
 9.7000000E+00  5.0000000E-01  1.0371027E+02 -4.4345839E-01 -2.0125445E+04
 9.9000000E+00  5.0000000E-01  1.0388247E+02 -3.3457022E-01 -2.0063234E+04
 1.0100000E+01  5.0000000E-01  1.0400363E+02 -2.0546979E-01 -1.9986168E+04
 1.0300000E+01  5.0000000E-01  1.0406539E+02 -6.1664736E-02 -1.9893119E+04
 1.0500000E+01  5.0000000E-01  1.0406236E+02  8.9661047E-02 -1.9783431E+04
 1.0700000E+01  5.0000000E-01  1.0399284E+02  2.4039346E-01 -1.9656999E+04
 1.0900000E+01  5.0000000E-01  1.0385900E+02  3.8242118E-01 -1.9514294E+04
 1.1100000E+01  5.0000000E-01  1.0366673E+02  5.0857197E-01 -1.9356323E+04
 1.1300000E+01  5.0000000E-01  1.0342487E+02  6.1336748E-01 -1.9184531E+04
 1.1500000E+01  5.0000000E-01  1.0314422E+02  6.9346335E-01 -1.9000665E+04
 1.1700000E+01  5.0000000E-01  1.0283645E+02  7.4772991E-01 -1.8806633E+04
 1.1900000E+01  5.0000000E-01  1.0251305E+02  7.7701726E-01 -1.8604356E+04
 1.2100000E+01  5.0000000E-01  1.0218454E+02  7.8370937E-01 -1.8395660E+04
 1.2300000E+01  5.0000000E-01  1.0185989E+02  7.7118917E-01 -1.8182191E+04
 1.2500000E+01  5.0000000E-01  1.0154625E+02  7.4332008E-01 -1.7965374E+04
 1.2700000E+01  5.0000000E-01  1.0124894E+02  7.0401373E-01 -1.7746390E+04
 1.2900000E+01  5.0000000E-01  1.0097157E+02  6.5691555E-01 -1.7526189E+04
 1.3100000E+01  5.0000000E-01  1.0071626E+02  6.0521003E-01 -1.7305507E+04
 1.3300000E+01  5.0000000E-01  1.0048390E+02  5.5152863E-01 -1.7084895E+04
 1.3500000E+01  5.0000000E-01  1.0027446E+02  4.9793518E-01 -1.6864748E+04
 1.3700000E+01  5.0000000E-01  1.0008720E+02  4.4596281E-01 -1.6645340E+04
 1.3900000E+01  5.0000000E-01  9.9920924E+01  3.9668031E-01 -1.6426844E+04
 1.4100000E+01  5.0000000E-01  9.9774148E+01  3.5077067E-01 -1.6209362E+04
 1.4300000E+01  5.0000000E-01  9.9645227E+01  3.0861059E-01 -1.5992939E+04
 1.4500000E+01  5.0000000E-01  9.9532465E+01  2.7034352E-01 -1.5777581E+04
 1.4700000E+01  5.0000000E-01  9.9434191E+01  2.3594296E-01 -1.5563266E+04
 1.4900000E+01  5.0000000E-01  9.9348806E+01  2.0526468E-01 -1.5349953E+04
 1.5100000E+01  5.0000000E-01  9.9274811E+01  1.7808811E-01 -1.5137590E+04
 1.5300000E+01  5.0000000E-01  9.9210829E+01  1.5414811E-01 -1.4926119E+04
 1.5500000E+01  5.0000000E-01  9.9155609E+01  1.3315846E-01 -1.4715478E+04
 1.5700000E+01  5.0000000E-01  9.9108030E+01  1.1482866E-01 -1.4505606E+04
 1.5900000E+01  5.0000000E-01  9.9067089E+01  9.8875456E-02 -1.4296442E+04
 1.6100000E+01  5.0000000E-01  9.9031903E+01  8.5030237E-02 -1.4087927E+04
 1.6300000E+01  5.0000000E-01  9.9001693E+01  7.3043510E-02 -1.3880008E+04
 1.6500000E+01  5.0000000E-01  9.8975778E+01  6.2687124E-02 -1.3672633E+04
 1.6700000E+01  5.0000000E-01  9.8953565E+01  5.3754978E-02 -1.3465753E+04
 1.6900000E+01  5.0000000E-01  9.8934537E+01  4.6062685E-02 -1.3259327E+04
 1.7100000E+01  5.0000000E-01  9.8918246E+01  3.9446568E-02 -1.3053313E+04
 1.7300000E+01  5.0000000E-01  9.8904307E+01  3.3762254E-02 -1.2847674E+04
 1.7500000E+01  5.0000000E-01  9.8892385E+01  2.8883057E-02 -1.2642378E+04
 1.7700000E+01  5.0000000E-01  9.8882192E+01  2.4698291E-02 -1.2437394E+04
 1.7900000E+01  5.0000000E-01  9.8873480E+01  2.1111594E-02 -1.2232693E+04
 1.8100000E+01  5.0000000E-01  9.8866038E+01  1.8039323E-02 -1.2028251E+04
 1.8300000E+01  5.0000000E-01  9.8859681E+01  1.5409057E-02 -1.1824045E+04
 1.8500000E+01  5.0000000E-01  9.8854253E+01  1.3158223E-02 -1.1620055E+04
 1.8700000E+01  5.0000000E-01  9.8849620E+01  1.1232852E-02 -1.1416261E+04
 1.8900000E+01  5.0000000E-01  9.8845666E+01  9.5864641E-03 -1.1212646E+04
 1.9100000E+01  5.0000000E-01  9.8842293E+01  8.1790803E-03 -1.1009195E+04
 1.9300000E+01  5.0000000E-01  9.8839416E+01  6.9763499E-03 -1.0805894E+04
 1.9500000E+01  5.0000000E-01  9.8836963E+01  5.9487844E-03 -1.0602730E+04
 1.9700000E+01  5.0000000E-01  9.8834872E+01  5.0710886E-03 -1.0399691E+04