VARIABLES = "X", "Y", "U", "V", "P"
ZONE I=   150, J=    40, K=1, F= POINT
 1.0000000E-01  1.0000000E-01  9.9998460E+01  1.5404183E-03 -2.0255381E+04
 3.0000000E-01  1.0000000E-01  9.9996281E+01  6.3802876E-04 -2.0260473E+04
 5.0000000E-01  1.0000000E-01  9.9995369E+01  2.7399246E-04 -2.0263679E+04
 7.0000000E-01  1.0000000E-01  9.9994995E+01  9.9660117E-05 -2.0266049E+04
 9.0000000E-01  1.0000000E-01  9.9994912E+01 -1.6549356E-05 -2.0268005E+04
 1.1000000E+00  1.0000000E-01  9.9995048E+01 -1.1955482E-04 -2.0269742E+04
 1.3000000E+00  1.0000000E-01  9.9995396E+01 -2.2753993E-04 -2.0271366E+04
 1.5000000E+00  1.0000000E-01  9.9995973E+01 -3.4987317E-04 -2.0272940E+04
 1.7000000E+00  1.0000000E-01  9.9996816E+01 -4.9294613E-04 -2.0274504E+04
 1.9000000E+00  1.0000000E-01  9.9997971E+01 -6.6231558E-04 -2.0276088E+04
 2.1000000E+00  1.0000000E-01  9.9999497E+01 -8.6361170E-04 -2.0277712E+04
 2.3000000E+00  1.0000000E-01  1.0000146E+02 -1.1030027E-03 -2.0279395E+04
 2.5000000E+00  1.0000000E-01  1.0000395E+02 -1.3874913E-03 -2.0281152E+04
 2.7000000E+00  1.0000000E-01  1.0000707E+02 -1.7251494E-03 -2.0282996E+04
 2.9000000E+00  1.0000000E-01  1.0001092E+02 -2.1253362E-03 -2.0284939E+04
 3.1000000E+00  1.0000000E-01  1.0001564E+02 -2.5989198E-03 -2.0286993E+04
 3.3000000E+00  1.0000000E-01  1.0002140E+02 -3.1585124E-03 -2.0289170E+04
 3.5000000E+00  1.0000000E-01  1.0002838E+02 -3.8187226E-03 -2.0291480E+04
 3.7000000E+00  1.0000000E-01  1.0003679E+02 -4.5964270E-03 -2.0293934E+04
 3.9000000E+00  1.0000000E-01  1.0004690E+02 -5.5110565E-03 -2.0296546E+04
 4.1000000E+00  1.0000000E-01  1.0005899E+02 -6.5848923E-03 -2.0299325E+04
 4.3000000E+00  1.0000000E-01  1.0007342E+02 -7.8433587E-03 -2.0302284E+04
 4.5000000E+00  1.0000000E-01  1.0009058E+02 -9.3152959E-03 -2.0305434E+04
 4.7000000E+00  1.0000000E-01  1.0011093E+02 -1.1033185E-02 -2.0308785E+04
 4.9000000E+00  1.0000000E-01  1.0013500E+02 -1.3033288E-02 -2.0312348E+04
 5.1000000E+00  1.0000000E-01  1.0016339E+02 -1.5355643E-02 -2.0316131E+04
 5.3000000E+00  1.0000000E-01  1.0019678E+02 -1.8043855E-02 -2.0320141E+04
 5.5000000E+00  1.0000000E-01  1.0023597E+02 -2.1144565E-02 -2.0324381E+04
 5.7000000E+00  1.0000000E-01  1.0028182E+02 -2.4706492E-02 -2.0328849E+04
 5.9000000E+00  1.0000000E-01  1.0033531E+02 -2.8778871E-02 -2.0333536E+04
 6.1000000E+00  1.0000000E-01  1.0039750E+02 -3.3409098E-02 -2.0338425E+04
 6.3000000E+00  1.0000000E-01  1.0046955E+02 -3.8639366E-02 -2.0343485E+04
 6.5000000E+00  1.0000000E-01  1.0055269E+02 -4.4502011E-02 -2.0348667E+04
 6.7000000E+00  1.0000000E-01  1.0064820E+02 -5.1013335E-02 -2.0353899E+04
 6.9000000E+00  1.0000000E-01  1.0075738E+02 -5.8165675E-02 -2.0359078E+04
 7.1000000E+00  1.0000000E-01  1.0088147E+02 -6.5917576E-02 -2.0364061E+04
 7.3000000E+00  1.0000000E-01  1.0102156E+02 -7.4182145E-02 -2.0368653E+04
 7.5000000E+00  1.0000000E-01  1.0117856E+02 -8.2813950E-02 -2.0372594E+04
 7.7000000E+00  1.0000000E-01  1.0135297E+02 -9.1595313E-02 -2.0375543E+04
 7.9000000E+00  1.0000000E-01  1.0154479E+02 -1.0022350E-01 -2.0377059E+04
 8.1000000E+00  1.0000000E-01  1.0175331E+02 -1.0830110E-01 -2.0376586E+04
 8.3000000E+00  1.0000000E-01  1.0197695E+02 -1.1533280E-01 -2.0373428E+04
 8.5000000E+00  1.0000000E-01  1.0221301E+02 -1.2073234E-01 -2.0366740E+04
 8.7000000E+00  1.0000000E-01  1.0245759E+02 -1.2384407E-01 -2.0355517E+04
 8.9000000E+00  1.0000000E-01  1.0270542E+02 -1.2398247E-01 -2.0338588E+04
 9.1000000E+00  1.0000000E-01  1.0294989E+02 -1.2049151E-01 -2.0314637E+04
 9.3000000E+00  1.0000000E-01  1.0318320E+02 -1.1282205E-01 -2.0282231E+04
 9.5000000E+00  1.0000000E-01  1.0339665E+02 -1.0062028E-01 -2.0239876E+04
 9.7000000E+00  1.0000000E-01  1.0358108E+02 -8.3814811E-02 -2.0186085E+04
 9.9000000E+00  1.0000000E-01  1.0372758E+02 -6.2685063E-02 -2.0119476E+04
 1.0100000E+01  1.0000000E-01  1.0382816E+02 -3.7892384E-02 -2.0038873E+04
 1.0300000E+01  1.0000000E-01  1.0387651E+02 -1.0459155E-02 -1.9943398E+04
 1.0500000E+01  1.0000000E-01  1.0386866E+02  1.8309428E-02 -1.9832561E+04
 1.0700000E+01  1.0000000E-01  1.0380340E+02  4.6953030E-02 -1.9706309E+04
 1.0900000E+01  1.0000000E-01  1.0368243E+02  7.4012735E-02 -1.9565039E+04
 1.1100000E+01  1.0000000E-01  1.0351023E+02  9.8188028E-02 -1.9409570E+04
 1.1300000E+01  1.0000000E-01  1.0329358E+02  1.1846552E-01 -1.9241079E+04
 1.1500000E+01  1.0000000E-01  1.0304091E+02  1.3419835E-01 -1.9061003E+04
 1.1700000E+01  1.0000000E-01  1.0276159E+02  1.4512778E-01 -1.8870940E+04
 1.1900000E+01  1.0000000E-01  1.0246511E+02  1.5135198E-01 -1.8672539E+04
 1.2100000E+01  1.0000000E-01  1.0216050E+02  1.5325662E-01 -1.8467408E+04
 1.2300000E+01  1.0000000E-01  1.0185582E+02  1.5142607E-01 -1.8257049E+04
 1.2500000E+01  1.0000000E-01  1.0155784E+02  1.4655289E-01 -1.8042801E+04
 1.2700000E+01  1.0000000E-01  1.0127193E+02  1.3935832E-01 -1.7825822E+04
 1.2900000E+01  1.0000000E-01  1.0100204E+02  1.3053116E-01 -1.7607077E+04
 1.3100000E+01  1.0000000E-01  1.0075082E+02  1.2068684E-01 -1.7387346E+04
 1.3300000E+01  1.0000000E-01  1.0051979E+02  1.1034515E-01 -1.7167241E+04
 1.3500000E+01  1.0000000E-01  1.0030952E+02  9.9922835E-02 -1.6947224E+04
 1.3700000E+01  1.0000000E-01  1.0011986E+02  8.9736978E-02 -1.6727635E+04
 1.3900000E+01  1.0000000E-01  9.9950106E+01  8.0014942E-02 -1.6508709E+04
 1.4100000E+01  1.0000000E-01  9.9799184E+01  7.0907750E-02 -1.6290602E+04
 1.4300000E+01  1.0000000E-01  9.9665771E+01  6.2504435E-02 -1.6073404E+04
 1.4500000E+01  1.0000000E-01  9.9548421E+01  5.4845816E-02 -1.5857160E+04
 1.4700000E+01  1.0000000E-01  9.9445639E+01  4.7936776E-02 -1.5641878E+04
 1.4900000E+01  1.0000000E-01  9.9355945E+01  4.1756669E-02 -1.5427541E+04
 1.5100000E+01  1.0000000E-01  9.9277921E+01  3.6267738E-02 -1.5214117E+04
 1.5300000E+01  1.0000000E-01  9.9210231E+01  3.1421716E-02 -1.5001560E+04
 1.5500000E+01  1.0000000E-01  9.9151645E+01  2.7164789E-02 -1.4789818E+04
 1.5700000E+01  1.0000000E-01  9.9101039E+01  2.3441228E-02 -1.4578839E+04
 1.5900000E+01  1.0000000E-01  9.9057402E+01  2.0195929E-02 -1.4368565E+04
 1.6100000E+01  1.0000000E-01  9.9019830E+01  1.7376101E-02 -1.4158943E+04
 1.6300000E+01  1.0000000E-01  9.8987521E+01  1.4932324E-02 -1.3949921E+04
 1.6500000E+01  1.0000000E-01  9.8959770E+01  1.2819127E-02 -1.3741448E+04
 1.6700000E+01  1.0000000E-01  9.8935955E+01  1.0995231E-02 -1.3533477E+04
 1.6900000E+01  1.0000000E-01  9.8915537E+01  9.4235577E-03 -1.3325966E+04
 1.7100000E+01  1.0000000E-01  9.8898042E+01  8.0710872E-03 -1.3118875E+04
 1.7300000E+01  1.0000000E-01  9.8883062E+01  6.9086135E-03 -1.2912165E+04
 1.7500000E+01  1.0000000E-01  9.8870243E+01  5.9104521E-03 -1.2705804E+04
 1.7700000E+01  1.0000000E-01  9.8859279E+01  5.0541197E-03 -1.2499760E+04
 1.7900000E+01  1.0000000E-01  9.8849904E+01  4.3200125E-03 -1.2294006E+04
 1.8100000E+01  1.0000000E-01  9.8841893E+01  3.6910919E-03 -1.2088515E+04
 1.8300000E+01  1.0000000E-01  9.8835050E+01  3.1525890E-03 -1.1883264E+04
 1.8500000E+01  1.0000000E-01  9.8829205E+01  2.6917316E-03 -1.1678233E+04
 1.8700000E+01  1.0000000E-01  9.8824216E+01  2.2974951E-03 -1.1473402E+04
 1.8900000E+01  1.0000000E-01  9.8819958E+01  1.9603788E-03 -1.1268754E+04
 1.9100000E+01  1.0000000E-01  9.8816326E+01  1.6722065E-03 -1.1064272E+04
 1.9300000E+01  1.0000000E-01  9.8813228E+01  1.4259495E-03 -1.0859942E+04
 1.9500000E+01  1.0000000E-01  9.8810586E+01  1.2155722E-03 -1.0655752E+04
 1.9700000E+01  1.0000000E-01  9.8808335E+01  1.0358955E-03 -1.0451689E+04
 1.9900000E+01  1.0000000E-01  9.8806416E+01  8.8247862E-04 -1.0247743E+04
 2.0100000E+01  1.0000000E-01  9.8804782E+01  7.5151611E-04 -1.0043904E+04
 2.0300000E+01  1.0000000E-01  9.8803391E+01  6.3974864E-04 -9.8401622E+03
 2.0500000E+01  1.0000000E-01  9.8802207E+01  5.4438584E-04 -9.6365103E+03
 2.0700000E+01  1.0000000E-01  9.8801199E+01  4.6303970E-04 -9.4329407E+03
 2.0900000E+01  1.0000000E-01  9.8800343E+01  3.9366738E-04 -9.2294465E+03
 2.1100000E+01  1.0000000E-01  9.8799614E+01  3.3452170E-04 -9.0260216E+03
 2.1300000E+01  1.0000000E-01  9.8798996E+01  2.8410863E-04 -8.8226603E+03
 2.1500000E+01  1.0000000E-01  9.8798471E+01  2.4115121E-04 -8.6193574E+03
 2.1700000E+01  1.0000000E-01  9.8798025E+01  2.0455784E-04 -8.4161082E+03
 2.1900000E+01  1.0000000E-01  9.8797647E+01  1.7339598E-04 -8.2129084E+03
 2.2100000E+01  1.0000000E-01  9.8797327E+01  1.4686862E-04 -8.0097540E+03
 2.2300000E+01  1.0000000E-01  9.8797055E+01  1.2429498E-04 -7.8066414E+03
 2.2500000E+01  1.0000000E-01  9.8796826E+01  1.0509375E-04 -7.6035672E+03
 2.2700000E+01  1.0000000E-01  9.8796632E+01  8.8768370E-05 -7.4005284E+03
 2.2900000E+01  1.0000000E-01  9.8796469E+01  7.4894862E-05 -7.1975222E+03
 2.3100000E+01  1.0000000E-01  9.8796331E+01  6.3111363E-05 -6.9945460E+03
 2.3300000E+01  1.0000000E-01  9.8796214E+01  5.3108842E-05 -6.7915974E+03
 2.3500000E+01  1.0000000E-01  9.8796117E+01  4.4623569E-05 -6.5886742E+03
 2.3700000E+01  1.0000000E-01  9.8796035E+01  3.7430542E-05 -6.3857744E+03
 2.3900000E+01  1.0000000E-01  9.8795966E+01  3.1337716E-05 -6.1828963E+03
 2.4100000E+01  1.0000000E-01  9.8795908E+01  2.6181316E-05 -5.9800380E+03
 2.4300000E+01  1.0000000E-01  9.8795860E+01  2.1821740E-05 -5.7771980E+03
 2.4500000E+01  1.0000000E-01  9.8795820E+01  1.8139801E-05 -5.5743749E+03
 2.4700000E+01  1.0000000E-01  9.8795787E+01  1.5033893E-05 -5.3715673E+03
 2.4900000E+01  1.0000000E-01  9.8795760E+01  1.2417540E-05 -5.1687740E+03
 2.5100000E+01  1.0000000E-01  9.8795737E+01  1.0216960E-05 -4.9659938E+03
 2.5300000E+01  1.0000000E-01  9.8795718E+01  8.3692891E-06 -4.7632258E+03
 2.5500000E+01  1.0000000E-01  9.8795703E+01  6.8210194E-06 -4.5604689E+03
 2.5700000E+01  1.0000000E-01  9.8795691E+01  5.5265512E-06 -4.3577222E+03
 2.5900000E+01  1.0000000E-01  9.8795681E+01  4.4472118E-06 -4.1549850E+03
 2.6100000E+01  1.0000000E-01  9.8795673E+01  3.5499181E-06 -3.9522564E+03
 2.6300000E+01  1.0000000E-01  9.8795667E+01  2.8065561E-06 -3.7495357E+03
 2.6500000E+01  1.0000000E-01  9.8795662E+01  2.1933187E-06 -3.5468223E+03
 2.6700000E+01  1.0000000E-01  9.8795658E+01  1.6900141E-06 -3.3441155E+03
 2.6900000E+01  1.0000000E-01  9.8795655E+01  1.2793569E-06 -3.1414148E+03
 2.7100000E+01  1.0000000E-01  9.8795652E+01  9.4678729E-07 -2.9387196E+03
 2.7300000E+01  1.0000000E-01  9.8795651E+01  6.7990968E-07 -2.7360294E+03
 2.7500000E+01  1.0000000E-01  9.8795650E+01  4.6816960E-07 -2.5333437E+03
 2.7700000E+01  1.0000000E-01  9.8795649E+01  3.0270505E-07 -2.3306621E+03
 2.7900000E+01  1.0000000E-01  9.8795648E+01  1.7589260E-07 -2.1279843E+03
 2.8100000E+01  1.0000000E-01  9.8795648E+01  8.1305143E-08 -1.9253097E+03
 2.8300000E+01  1.0000000E-01  9.8795648E+01  1.3469445E-08 -1.7226380E+03
 2.8500000E+01  1.0000000E-01  9.8795648E+01 -3.2354338E-08 -1.5199689E+03
 2.8700000E+01  1.0000000E-01  9.8795648E+01 -6.0100455E-08 -1.3173020E+03
 2.8900000E+01  1.0000000E-01  9.8795648E+01 -7.3203022E-08 -1.1146371E+03
 2.9100000E+01  1.0000000E-01  9.8795649E+01 -7.4653146E-08 -9.1197371E+02
 2.9300000E+01  1.0000000E-01  9.8795649E+01 -6.6964265E-08 -7.0931166E+02
 2.9500000E+01  1.0000000E-01  9.8795649E+01 -5.2501846E-08 -5.0665062E+02
 2.9700000E+01  1.0000000E-01  9.8795649E+01 -3.3235517E-08 -3.0399029E+02
 2.9900000E+01  1.0000000E-01  9.8795649E+01 -1.1229113E-08 -1.0133039E+02
 1.0000000E-01  3.0000000E-01  1.0000058E+02  2.4963425E-03 -2.0260290E+04
 3.0000000E-01  3.0000000E-01  1.0000117E+02  1.2792087E-03 -2.0262357E+04
 5.0000000E-01  3.0000000E-01  1.0000108E+02  6.3128109E-04 -2.0264516E+04
 7.0000000E-01  3.0000000E-01  1.0000095E+02  2.4085184E-04 -2.0266464E+04
 9.0000000E-01  3.0000000E-01  1.0000094E+02 -6.2855387E-05 -2.0268222E+04
 1.1000000E+00  3.0000000E-01  1.0000109E+02 -3.5369329E-04 -2.0269855E+04
 1.3000000E+00  3.0000000E-01  1.0000141E+02 -6.6828615E-04 -2.0271416E+04
 1.5000000E+00  3.0000000E-01  1.0000196E+02 -1.0289013E-03 -2.0272950E+04
 1.7000000E+00  3.0000000E-01  1.0000275E+02 -1.4525725E-03 -2.0274485E+04
 1.9000000E+00  3.0000000E-01  1.0000385E+02 -1.9550611E-03 -2.0276047E+04
 2.1000000E+00  3.0000000E-01  1.0000531E+02 -2.5527938E-03 -2.0277654E+04
 2.3000000E+00  3.0000000E-01  1.0000719E+02 -3.2639790E-03 -2.0279322E+04
 2.5000000E+00  3.0000000E-01  1.0000958E+02 -4.1093904E-03 -2.0281066E+04
 2.7000000E+00  3.0000000E-01  1.0001258E+02 -5.1130263E-03 -2.0282897E+04
 2.9000000E+00  3.0000000E-01  1.0001629E+02 -6.3027434E-03 -2.0284829E+04
 3.1000000E+00  3.0000000E-01  1.0002086E+02 -7.7109115E-03 -2.0286872E+04
 3.3000000E+00  3.0000000E-01  1.0002643E+02 -9.3751151E-03 -2.0289037E+04
 3.5000000E+00  3.0000000E-01  1.0003319E+02 -1.1338910E-02 -2.0291335E+04
 3.7000000E+00  3.0000000E-01  1.0004135E+02 -1.3652641E-02 -2.0293779E+04
 3.9000000E+00  3.0000000E-01  1.0005116E+02 -1.6374305E-02 -2.0296379E+04
 4.1000000E+00  3.0000000E-01  1.0006292E+02 -1.9570455E-02 -2.0299148E+04
 4.3000000E+00  3.0000000E-01  1.0007695E+02 -2.3317093E-02 -2.0302095E+04
 4.5000000E+00  3.0000000E-01  1.0009365E+02 -2.7700515E-02 -2.0305235E+04
 4.7000000E+00  3.0000000E-01  1.0011347E+02 -3.2818028E-02 -2.0308576E+04
 4.9000000E+00  3.0000000E-01  1.0013693E+02 -3.8778420E-02 -2.0312131E+04
 5.1000000E+00  3.0000000E-01  1.0016464E+02 -4.5702027E-02 -2.0315909E+04
 5.3000000E+00  3.0000000E-01  1.0019726E+02 -5.3720187E-02 -2.0319917E+04
 5.5000000E+00  3.0000000E-01  1.0023558E+02 -6.2973794E-02 -2.0324160E+04
 5.7000000E+00  3.0000000E-01  1.0028046E+02 -7.3610564E-02 -2.0328639E+04
 5.9000000E+00  3.0000000E-01  1.0033288E+02 -8.5780554E-02 -2.0333347E+04
 6.1000000E+00  3.0000000E-01  1.0039391E+02 -9.9629336E-02 -2.0338270E+04
 6.3000000E+00  3.0000000E-01  1.0046473E+02 -1.1528813E-01 -2.0343383E+04
 6.5000000E+00  3.0000000E-01  1.0054660E+02 -1.3286012E-01 -2.0348642E+04
 6.7000000E+00  3.0000000E-01  1.0064083E+02 -1.5240217E-01 -2.0353983E+04
 6.9000000E+00  3.0000000E-01  1.0074877E+02 -1.7390109E-01 -2.0359313E+04
 7.1000000E+00  3.0000000E-01  1.0087175E+02 -1.9724417E-01 -2.0364500E+04
 7.3000000E+00  3.0000000E-01  1.0101098E+02 -2.2218383E-01 -2.0369363E+04
 7.5000000E+00  3.0000000E-01  1.0116747E+02 -2.4829747E-01 -2.0373658E+04
 7.7000000E+00  3.0000000E-01  1.0134190E+02 -2.7494484E-01 -2.0377061E+04
 7.9000000E+00  3.0000000E-01  1.0153443E+02 -3.0122735E-01 -2.0379150E+04
 8.1000000E+00  3.0000000E-01  1.0174456E+02 -3.2595601E-01 -2.0379385E+04
 8.3000000E+00  3.0000000E-01  1.0197089E+02 -3.4763778E-01 -2.0377087E+04
 8.5000000E+00  3.0000000E-01  1.0221089E+02 -3.6449243E-01 -2.0371418E+04
 8.7000000E+00  3.0000000E-01  1.0246074E+02 -3.7451336E-01 -2.0361369E+04
 8.9000000E+00  3.0000000E-01  1.0271519E+02 -3.7558460E-01 -2.0345758E+04
 9.1000000E+00  3.0000000E-01  1.0296748E+02 -3.6566068E-01 -2.0323232E+04
 9.3000000E+00  3.0000000E-01  1.0320952E+02 -3.4300563E-01 -2.0292307E+04
 9.5000000E+00  3.0000000E-01  1.0343212E+02 -3.0647097E-01 -2.0251413E+04
 9.7000000E+00  3.0000000E-01  1.0362549E+02 -2.5577413E-01 -2.0198977E+04
 9.9000000E+00  3.0000000E-01  1.0377999E+02 -1.9172224E-01 -2.0133519E+04
 1.0100000E+01  3.0000000E-01  1.0388688E+02 -1.1632029E-01 -2.0053767E+04
 1.0300000E+01  3.0000000E-01  1.0393921E+02 -3.2713697E-02 -1.9958768E+04
 1.0500000E+01  3.0000000E-01  1.0393257E+02  5.5054182E-02 -1.9847981E+04
 1.0700000E+01  3.0000000E-01  1.0386559E+02  1.4244570E-01 -1.9721341E+04
 1.0900000E+01  3.0000000E-01  1.0374015E+02  2.2492703E-01 -1.9579271E+04
 1.1100000E+01  3.0000000E-01  1.0356116E+02  2.9846783E-01 -1.9422654E+04
 1.1300000E+01  3.0000000E-01  1.0333605E+02  3.5994847E-01 -1.9252754E+04
 1.1500000E+01  3.0000000E-01  1.0307402E+02  4.0740669E-01 -1.9071110E+04
 1.1700000E+01  3.0000000E-01  1.0278517E+02  4.4009751E-01 -1.8879419E+04
 1.1900000E+01  3.0000000E-01  1.0247965E+02  4.5838487E-01 -1.8679421E+04
 1.2100000E+01  3.0000000E-01  1.0216696E+02  4.6351453E-01 -1.8472795E+04
 1.2300000E+01  3.0000000E-01  1.0185548E+02  4.5733027E-01 -1.8261090E+04
 1.2500000E+01  3.0000000E-01  1.0155212E+02  4.4198919E-01 -1.8045675E+04
 1.2700000E+01  3.0000000E-01  1.0126224E+02  4.1971625E-01 -1.7827716E+04
 1.2900000E+01  3.0000000E-01  1.0098968E+02  3.9261878E-01 -1.7608174E+04
 1.3100000E+01  3.0000000E-01  1.0073693E+02  3.6256546E-01 -1.7387814E+04
 1.3300000E+01  3.0000000E-01  1.0050531E+02  3.3112297E-01 -1.7167228E+04
 1.3500000E+01  3.0000000E-01  1.0029518E+02  2.9953831E-01 -1.6946857E+04
 1.3700000E+01  3.0000000E-01  1.0010621E+02  2.6875274E-01 -1.6727018E+04
 1.3900000E+01  3.0000000E-01  9.9937530E+01  2.3943500E-01 -1.6507927E+04
 1.4100000E+01  3.0000000E-01  9.9787916E+01  2.1202382E-01 -1.6289718E+04
 1.4300000E+01  3.0000000E-01  9.9655944E+01  1.8677253E-01 -1.6072470E+04
 1.4500000E+01  3.0000000E-01  9.9540081E+01  1.6379131E-01 -1.5856211E+04
 1.4700000E+01  3.0000000E-01  9.9438770E+01  1.4308441E-01 -1.5640941E+04
 1.4900000E+01  3.0000000E-01  9.9350491E+01  1.2458145E-01 -1.5426635E+04
 1.5100000E+01  3.0000000E-01  9.9273796E+01  1.0816259E-01 -1.5213253E+04
 1.5300000E+01  3.0000000E-01  9.9207334E+01  9.3678027E-02 -1.5000745E+04
 1.5500000E+01  3.0000000E-01  9.9149867E+01  8.0962708E-02 -1.4789057E+04
 1.5700000E+01  3.0000000E-01  9.9100269E+01  6.9846899E-02 -1.4578132E+04
 1.5900000E+01  3.0000000E-01  9.9057533E+01  6.0163586E-02 -1.4367912E+04
 1.6100000E+01  3.0000000E-01  9.9020760E+01  5.1753345E-02 -1.4158343E+04
 1.6300000E+01  3.0000000E-01  9.8989156E+01  4.4467331E-02 -1.3949370E+04
 1.6500000E+01  3.0000000E-01  9.8962023E+01  3.8168886E-02 -1.3740944E+04
 1.6700000E+01  3.0000000E-01  9.8938749E+01  3.2734161E-02 -1.3533017E+04
 1.6900000E+01  3.0000000E-01  9.8918800E+01  2.8052065E-02 -1.3325546E+04
 1.7100000E+01  3.0000000E-01  9.8901713E+01  2.4023773E-02 -1.3118491E+04
 1.7300000E+01  3.0000000E-01  9.8887087E+01  2.0561964E-02 -1.2911816E+04
 1.7500000E+01  3.0000000E-01  9.8874573E+01  1.7589900E-02 -1.2705485E+04
 1.7700000E+01  3.0000000E-01  9.8863872E+01  1.5040453E-02 -1.2499470E+04
 1.7900000E+01  3.0000000E-01  9.8854725E+01  1.2855124E-02 -1.2293741E+04
 1.8100000E+01  3.0000000E-01  9.8846909E+01  1.0983091E-02 -1.2088274E+04
 1.8300000E+01  3.0000000E-01  9.8840233E+01  9.3803210E-03 -1.1883045E+04
 1.8500000E+01  3.0000000E-01  9.8834532E+01  8.0087444E-03 -1.1678033E+04
 1.8700000E+01  3.0000000E-01  9.8829667E+01  6.8355109E-03 -1.1473219E+04
 1.8900000E+01  3.0000000E-01  9.8825514E+01  5.8323171E-03 -1.1268586E+04
 1.9100000E+01  3.0000000E-01  9.8821973E+01  4.9748103E-03 -1.1064119E+04
 1.9300000E+01  3.0000000E-01  9.8818952E+01  4.2420597E-03 -1.0859803E+04
 1.9500000E+01  3.0000000E-01  9.8816377E+01  3.6160937E-03 -1.0655624E+04
 1.9700000E+01  3.0000000E-01  9.8814182E+01  3.0814931E-03 -1.0451573E+04
 1.9900000E+01  3.0000000E-01  9.8812312E+01  2.6250383E-03 -1.0247636E+04
 2.0100000E+01  3.0000000E-01  9.8810720E+01  2.2354018E-03 -1.0043806E+04
 2.0300000E+01  3.0000000E-01  9.8809364E+01  1.9028827E-03 -9.8400724E+03
 2.0500000E+01  3.0000000E-01  9.8808210E+01  1.6191762E-03 -9.6364280E+03
 2.0700000E+01  3.0000000E-01  9.8807229E+01  1.3771756E-03 -9.4328651E+03
 2.0900000E+01  3.0000000E-01  9.8806394E+01  1.1708015E-03 -9.2293771E+03
 2.1100000E+01  3.0000000E-01  9.8805685E+01  9.9485452E-04 -9.0259579E+03
 2.1300000E+01  3.0000000E-01  9.8805083E+01  8.4488931E-04 -8.8226018E+03
 2.1500000E+01  3.0000000E-01  9.8804571E+01  7.1710575E-04 -8.6193036E+03
 2.1700000E+01  3.0000000E-01  9.8804137E+01  6.0825611E-04 -8.4160588E+03
 2.1900000E+01  3.0000000E-01  9.8803769E+01  5.1556520E-04 -8.2128630E+03
 2.2100000E+01  3.0000000E-01  9.8803458E+01  4.3666199E-04 -8.0097122E+03
 2.2300000E+01  3.0000000E-01  9.8803194E+01  3.6952108E-04 -7.8066030E+03
 2.2500000E+01  3.0000000E-01  9.8802971E+01  3.1241263E-04 -7.6035318E+03
 2.2700000E+01  3.0000000E-01  9.8802782E+01  2.6385938E-04 -7.4004959E+03
 2.2900000E+01  3.0000000E-01  9.8802623E+01  2.2259996E-04 -7.1974922E+03
 2.3100000E+01  3.0000000E-01  9.8802489E+01  1.8755754E-04 -6.9945184E+03
 2.3300000E+01  3.0000000E-01  9.8802376E+01  1.5781289E-04 -6.7915719E+03
 2.3500000E+01  3.0000000E-01  9.8802281E+01  1.3258148E-04 -6.5886507E+03
 2.3700000E+01  3.0000000E-01  9.8802201E+01  1.1119383E-04 -6.3857528E+03
 2.3900000E+01  3.0000000E-01  9.8802135E+01  9.3078753E-05 -6.1828764E+03
 2.4100000E+01  3.0000000E-01  9.8802079E+01  7.7748999E-05 -5.9800196E+03
 2.4300000E+01  3.0000000E-01  9.8802032E+01  6.4789018E-05 -5.7771811E+03
 2.4500000E+01  3.0000000E-01  9.8801993E+01  5.3844429E-05 -5.5743593E+03
 2.4700000E+01  3.0000000E-01  9.8801961E+01  4.4613114E-05 -5.3715530E+03
 2.4900000E+01  3.0000000E-01  9.8801935E+01  3.6837594E-05 -5.1687608E+03
 2.5100000E+01  3.0000000E-01  9.8801913E+01  3.0298451E-05 -4.9659817E+03
 2.5300000E+01  3.0000000E-01  9.8801895E+01  2.4808760E-05 -4.7632146E+03
 2.5500000E+01  3.0000000E-01  9.8801880E+01  2.0209337E-05 -4.5604586E+03
 2.5700000E+01  3.0000000E-01  9.8801868E+01  1.6364656E-05 -4.3577128E+03
 2.5900000E+01  3.0000000E-01  9.8801859E+01  1.3159399E-05 -4.1549764E+03
 2.6100000E+01  3.0000000E-01  9.8801851E+01  1.0495422E-05 -3.9522485E+03
 2.6300000E+01  3.0000000E-01  9.8801845E+01  8.2892630E-06 -3.7495284E+03
 2.6500000E+01  3.0000000E-01  9.8801840E+01  6.4700028E-06 -3.5468156E+03
 2.6700000E+01  3.0000000E-01  9.8801837E+01  4.9773939E-06 -3.3441094E+03
 2.6900000E+01  3.0000000E-01  9.8801834E+01  3.7602386E-06 -3.1414092E+03
 2.7100000E+01  3.0000000E-01  9.8801832E+01  2.7750926E-06 -2.9387145E+03
 2.7300000E+01  3.0000000E-01  9.8801830E+01  1.9850796E-06 -2.7360248E+03
 2.7500000E+01  3.0000000E-01  9.8801829E+01  1.3589040E-06 -2.5333396E+03
 2.7700000E+01  3.0000000E-01  9.8801829E+01  8.7003158E-07 -2.3306584E+03
 2.7900000E+01  3.0000000E-01  9.8801828E+01  4.9592587E-07 -2.1279810E+03
 2.8100000E+01  3.0000000E-01  9.8801828E+01  2.1745746E-07 -1.9253067E+03
 2.8300000E+01  3.0000000E-01  9.8801828E+01  1.8361551E-08 -1.7226354E+03
 2.8500000E+01  3.0000000E-01  9.8801828E+01 -1.1523012E-07 -1.5199667E+03
 2.8700000E+01  3.0000000E-01  9.8801828E+01 -1.9514269E-07 -1.3173001E+03
 2.8900000E+01  3.0000000E-01  9.8801828E+01 -2.3153843E-07 -1.1146355E+03
 2.9100000E+01  3.0000000E-01  9.8801828E+01 -2.3321016E-07 -9.1197243E+02
 2.9300000E+01  3.0000000E-01  9.8801829E+01 -2.0782330E-07 -7.0931067E+02
 2.9500000E+01  3.0000000E-01  9.8801829E+01 -1.6219772E-07 -5.0664991E+02
 2.9700000E+01  3.0000000E-01  9.8801829E+01 -1.0246455E-07 -3.0398986E+02
 2.9900000E+01  3.0000000E-01  9.8801829E+01 -3.4632479E-08 -1.0133023E+02
 1.0000000E-01  5.0000000E-01  1.0000024E+02  1.6742112E-03 -2.0263131E+04
 3.0000000E-01  5.0000000E-01  1.0000053E+02  1.2228440E-03 -2.0264150E+04
 5.0000000E-01  5.0000000E-01  1.0000058E+02  7.2973497E-04 -2.0265564E+04
 7.0000000E-01  5.0000000E-01  1.0000055E+02  2.9531309E-04 -2.0267069E+04
 9.0000000E-01  5.0000000E-01  1.0000057E+02 -1.2203416E-04 -2.0268566E+04
 1.1000000E+00  5.0000000E-01  1.0000069E+02 -5.6408557E-04 -2.0270038E+04
 1.3000000E+00  5.0000000E-01  1.0000097E+02 -1.0630249E-03 -2.0271496E+04
 1.5000000E+00  5.0000000E-01  1.0000144E+02 -1.6448954E-03 -2.0272957E+04
 1.7000000E+00  5.0000000E-01  1.0000214E+02 -2.3334121E-03 -2.0274439E+04
 1.9000000E+00  5.0000000E-01  1.0000312E+02 -3.1526036E-03 -2.0275960E+04
 2.1000000E+00  5.0000000E-01  1.0000444E+02 -4.1285766E-03 -2.0277534E+04
 2.3000000E+00  5.0000000E-01  1.0000616E+02 -5.2907971E-03 -2.0279173E+04
 2.5000000E+00  5.0000000E-01  1.0000836E+02 -6.6731505E-03 -2.0280891E+04
 2.7000000E+00  5.0000000E-01  1.0001112E+02 -8.3149285E-03 -2.0282699E+04
 2.9000000E+00  5.0000000E-01  1.0001457E+02 -1.0261831E-02 -2.0284607E+04
 3.1000000E+00  5.0000000E-01  1.0001882E+02 -1.2567028E-02 -2.0286627E+04
 3.3000000E+00  5.0000000E-01  1.0002402E+02 -1.5292321E-02 -2.0288770E+04
 3.5000000E+00  5.0000000E-01  1.0003035E+02 -1.8509398E-02 -2.0291046E+04
 3.7000000E+00  5.0000000E-01  1.0003801E+02 -2.2301205E-02 -2.0293467E+04
 3.9000000E+00  5.0000000E-01  1.0004723E+02 -2.6763410E-02 -2.0296045E+04
 4.1000000E+00  5.0000000E-01  1.0005831E+02 -3.2005939E-02 -2.0298790E+04
 4.3000000E+00  5.0000000E-01  1.0007155E+02 -3.8154527E-02 -2.0301716E+04
 4.5000000E+00  5.0000000E-01  1.0008734E+02 -4.5352219E-02 -2.0304834E+04
 4.7000000E+00  5.0000000E-01  1.0010611E+02 -5.3760677E-02 -2.0308156E+04
 4.9000000E+00  5.0000000E-01  1.0012837E+02 -6.3561147E-02 -2.0311694E+04
 5.1000000E+00  5.0000000E-01  1.0015470E+02 -7.4954809E-02 -2.0315459E+04
 5.3000000E+00  5.0000000E-01  1.0018578E+02 -8.8162193E-02 -2.0319461E+04
 5.5000000E+00  5.0000000E-01  1.0022235E+02 -1.0342117E-01 -2.0323708E+04
 5.7000000E+00  5.0000000E-01  1.0026529E+02 -1.2098295E-01 -2.0328204E+04
 5.9000000E+00  5.0000000E-01  1.0031556E+02 -1.4110523E-01 -2.0332949E+04
 6.1000000E+00  5.0000000E-01  1.0037426E+02 -1.6404164E-01 -2.0337935E+04
 6.3000000E+00  5.0000000E-01  1.0044259E+02 -1.9002609E-01 -2.0343146E+04
 6.5000000E+00  5.0000000E-01  1.0052186E+02 -2.1925096E-01 -2.0348550E+04
 6.7000000E+00  5.0000000E-01  1.0061345E+02 -2.5183730E-01 -2.0354099E+04
 6.9000000E+00  5.0000000E-01  1.0071884E+02 -2.8779597E-01 -2.0359718E+04
 7.1000000E+00  5.0000000E-01  1.0083949E+02 -3.2697829E-01 -2.0365298E+04
 7.3000000E+00  5.0000000E-01  1.0097683E+02 -3.6901616E-01 -2.0370686E+04
 7.5000000E+00  5.0000000E-01  1.0113212E+02 -4.1325241E-01 -2.0375670E+04
 7.7000000E+00  5.0000000E-01  1.0130637E+02 -4.5866496E-01 -2.0379962E+04
 7.9000000E+00  5.0000000E-01  1.0150012E+02 -5.0379133E-01 -2.0383178E+04
 8.1000000E+00  5.0000000E-01  1.0171326E+02 -5.4666458E-01 -2.0384816E+04
 8.3000000E+00  5.0000000E-01  1.0194478E+02 -5.8477710E-01 -2.0384227E+04
 8.5000000E+00  5.0000000E-01  1.0219253E+02 -6.1509381E-01 -2.0380596E+04
 8.7000000E+00  5.0000000E-01  1.0245290E+02 -6.3414015E-01 -2.0372914E+04
 8.9000000E+00  5.0000000E-01  1.0272069E+02 -6.3818970E-01 -2.0359971E+04
 9.1000000E+00  5.0000000E-01  1.0298890E+02 -6.2356861E-01 -2.0340352E+04
 9.3000000E+00  5.0000000E-01  1.0324884E+02 -5.8707601E-01 -2.0312464E+04
 9.5000000E+00  5.0000000E-01  1.0349034E+02 -5.2649031E-01 -2.0274587E+04
 9.7000000E+00  5.0000000E-01  1.0370230E+02 -4.4109394E-01 -2.0224963E+04
 9.9000000E+00  5.0000000E-01  1.0387352E+02 -3.3211361E-01 -2.0161904E+04
 1.0100000E+01  5.0000000E-01  1.0399366E+02 -2.0295543E-01 -2.0083939E+04
 1.0300000E+01  5.0000000E-01  1.0405438E+02 -5.9130437E-02 -1.9989945E+04
 1.0500000E+01  5.0000000E-01  1.0405031E+02  9.2176186E-02 -1.9879276E+04
 1.0700000E+01  5.0000000E-01  1.0397976E+02  2.4285123E-01 -1.9751838E+04
 1.0900000E+01  5.0000000E-01  1.0384494E+02  3.8478626E-01 -1.9608113E+04
 1.1100000E+01  5.0000000E-01  1.0365173E+02  5.1081370E-01 -1.9449116E+04
 1.1300000E+01  5.0000000E-01  1.0340898E+02  6.1546105E-01 -1.9276300E+04
 1.1500000E+01  5.0000000E-01  1.0312751E+02  6.9539065E-01 -1.9091421E+04
 1.1700000E+01  5.0000000E-01  1.0281899E+02  7.4947967E-01 -1.8896388E+04
 1.1900000E+01  5.0000000E-01  1.0249493E+02  7.7858480E-01 -1.8693125E+04
 1.2100000E+01  5.0000000E-01  1.0216583E+02  7.8509589E-01 -1.8483457E+04
 1.2300000E+01  5.0000000E-01  1.0184066E+02  7.7240072E-01 -1.8269032E+04
 1.2500000E+01  5.0000000E-01  1.0152658E+02  7.4436648E-01 -1.8051271E+04
 1.2700000E+01  5.0000000E-01  1.0122889E+02  7.0490739E-01 -1.7831353E+04
 1.2900000E+01  5.0000000E-01  1.0095120E+02  6.5767044E-01 -1.7610228E+04
 1.3100000E+01  5.0000000E-01  1.0069563E+02  6.0584078E-01 -1.7388627E+04
 1.3300000E+01  5.0000000E-01  1.0046305E+02  5.5204987E-01 -1.7167100E+04
 1.3500000E+01  5.0000000E-01  1.0025342E+02  4.9836096E-01 -1.6946041E+04
 1.3700000E+01  5.0000000E-01  1.0006602E+02  4.4630630E-01 -1.6725721E+04
 1.3900000E+01  5.0000000E-01  9.9899630E+01  3.9695353E-01 -1.6506313E+04
 1.4100000E+01  5.0000000E-01  9.9752765E+01  3.5098445E-01 -1.6287916E+04
 1.4300000E+01  5.0000000E-01  9.9623774E+01  3.0877450E-01 -1.6070576E+04
 1.4500000E+01  5.0000000E-01  9.9510961E+01  2.7046593E-01 -1.5854298E+04
 1.4700000E+01  5.0000000E-01  9.9412650E+01  2.3603111E-01 -1.5639059E+04
 1.4900000E+01  5.0000000E-01  9.9327239E+01  2.0532477E-01 -1.5424819E+04
 1.5100000E+01  5.0000000E-01  9.9253228E+01  1.7812541E-01 -1.5211526E+04
 1.5300000E+01  5.0000000E-01  9.9189238E+01  1.5416708E-01 -1.4999120E+04
 1.5500000E+01  5.0000000E-01  9.9134016E+01  1.3316283E-01 -1.4787540E+04
 1.5700000E+01  5.0000000E-01  9.9086439E+01  1.1482155E-01 -1.4576725E+04
 1.5900000E+01  5.0000000E-01  9.9045505E+01  9.8859445E-02 -1.4366613E+04
 1.6100000E+01  5.0000000E-01  9.9010328E+01  8.5007458E-02 -1.4157148E+04
 1.6300000E+01  5.0000000E-01  9.8980129E+01  7.3015713E-02 -1.3948274E+04
 1.6500000E+01  5.0000000E-01  9.8954227E+01  6.2655736E-02 -1.3739941E+04
 1.6700000E+01  5.0000000E-01  9.8932028E+01  5.3721156E-02 -1.3532101E+04
 1.6900000E+01  5.0000000E-01  9.8913014E+01  4.6027361E-02 -1.3324711E+04
 1.7100000E+01  5.0000000E-01  9.8896738E+01  3.9410488E-02 -1.3117729E+04
 1.7300000E+01  5.0000000E-01  9.8882814E+01  3.3726006E-02 -1.2911121E+04
 1.7500000E+01  5.0000000E-01  9.8870906E+01  2.8847104E-02 -1.2704853E+04
 1.7700000E+01  5.0000000E-01  9.8860728E+01  2.4662989E-02 -1.2498893E+04
 1.7900000E+01  5.0000000E-01  9.8852031E+01  2.1077212E-02 -1.2293216E+04
 1.8100000E+01  5.0000000E-01  9.8844602E+01  1.8006062E-02 -1.2087795E+04
 1.8300000E+01  5.0000000E-01  9.8838258E+01  1.5377059E-02 -1.1882608E+04
 1.8500000E+01  5.0000000E-01  9.8832843E+01  1.3127585E-02 -1.1677634E+04
 1.8700000E+01  5.0000000E-01  9.8828222E+01  1.1203632E-02 -1.1472855E+04
 1.8900000E+01  5.0000000E-01  9.8824279E+01  9.5586929E-03 -1.1268254E+04
 1.9100000E+01  5.0000000E-01  9.8820917E+01  8.1527638E-03 -1.1063815E+04
 1.9300000E+01  5.0000000E-01  9.8818050E+01  6.9514760E-03 -1.0859525E+04
 1.9500000E+01  5.0000000E-01  9.8815606E+01  5.9253270E-03 -1.0655370E+04
 1.9700000E+01  5.0000000E-01  9.8813524E+01  5.0490108E-03 -1.0451340E+04