VARIABLES = "X", "Y", "U", "V", "P"
ZONE I=   150, J=    40, K=1, F= POINT
 1.0000000E-01  1.0000000E-01  9.9998742E+01  1.2577818E-03 -2.0132989E+04
 3.0000000E-01  1.0000000E-01  9.9996966E+01  5.1810150E-04 -2.0138082E+04
 5.0000000E-01  1.0000000E-01  9.9996227E+01  2.2087874E-04 -2.0141291E+04
 7.0000000E-01  1.0000000E-01  9.9995933E+01  7.3179425E-05 -2.0143664E+04
 9.0000000E-01  1.0000000E-01  9.9995891E+01 -3.0845266E-05 -2.0145623E+04
 1.1000000E+00  1.0000000E-01  9.9996049E+01 -1.2753045E-04 -2.0147366E+04
 1.3000000E+00  1.0000000E-01  9.9996409E+01 -2.3189409E-04 -2.0148997E+04
 1.5000000E+00  1.0000000E-01  9.9996993E+01 -3.5199431E-04 -2.0150579E+04
 1.7000000E+00  1.0000000E-01  9.9997838E+01 -4.9362114E-04 -2.0152153E+04
 1.9000000E+00  1.0000000E-01  9.9998994E+01 -6.6203029E-04 -2.0153747E+04
 2.1000000E+00  1.0000000E-01  1.0000052E+02 -8.6269197E-04 -2.0155384E+04
 2.3000000E+00  1.0000000E-01  1.0000248E+02 -1.1016861E-03 -2.0157082E+04
 2.5000000E+00  1.0000000E-01  1.0000497E+02 -1.3859671E-03 -2.0158855E+04
 2.7000000E+00  1.0000000E-01  1.0000808E+02 -1.7235824E-03 -2.0160717E+04
 2.9000000E+00  1.0000000E-01  1.0001193E+02 -2.1238822E-03 -2.0162680E+04
 3.1000000E+00  1.0000000E-01  1.0001665E+02 -2.5977370E-03 -2.0164757E+04
 3.3000000E+00  1.0000000E-01  1.0002240E+02 -3.1577701E-03 -2.0166959E+04
 3.5000000E+00  1.0000000E-01  1.0002938E+02 -3.8186091E-03 -2.0169297E+04
 3.7000000E+00  1.0000000E-01  1.0003780E+02 -4.5971567E-03 -2.0171784E+04
 3.9000000E+00  1.0000000E-01  1.0004791E+02 -5.5128772E-03 -2.0174431E+04
 4.1000000E+00  1.0000000E-01  1.0006001E+02 -6.5880933E-03 -2.0177250E+04
 4.3000000E+00  1.0000000E-01  1.0007444E+02 -7.8482790E-03 -2.0180254E+04
 4.5000000E+00  1.0000000E-01  1.0009161E+02 -9.3223338E-03 -2.0183453E+04
 4.7000000E+00  1.0000000E-01  1.0011198E+02 -1.1042809E-02 -2.0186860E+04
 4.9000000E+00  1.0000000E-01  1.0013607E+02 -1.3046046E-02 -2.0190485E+04
 5.1000000E+00  1.0000000E-01  1.0016449E+02 -1.5372180E-02 -2.0194338E+04
 5.3000000E+00  1.0000000E-01  1.0019792E+02 -1.8064923E-02 -2.0198425E+04
 5.5000000E+00  1.0000000E-01  1.0023716E+02 -2.1171041E-02 -2.0202753E+04
 5.7000000E+00  1.0000000E-01  1.0028307E+02 -2.4739394E-02 -2.0207319E+04
 5.9000000E+00  1.0000000E-01  1.0033663E+02 -2.8819372E-02 -2.0212117E+04
 6.1000000E+00  1.0000000E-01  1.0039891E+02 -3.3458551E-02 -2.0217130E+04
 6.3000000E+00  1.0000000E-01  1.0047107E+02 -3.8699311E-02 -2.0222330E+04
 6.5000000E+00  1.0000000E-01  1.0055434E+02 -4.4574196E-02 -2.0227669E+04
 6.7000000E+00  1.0000000E-01  1.0065001E+02 -5.1099724E-02 -2.0233079E+04
 6.9000000E+00  1.0000000E-01  1.0075938E+02 -5.8268450E-02 -2.0238458E+04
 7.1000000E+00  1.0000000E-01  1.0088369E+02 -6.6039131E-02 -2.0243667E+04
 7.3000000E+00  1.0000000E-01  1.0102405E+02 -7.4325069E-02 -2.0248513E+04
 7.5000000E+00  1.0000000E-01  1.0118136E+02 -8.2980981E-02 -2.0252741E+04
 7.7000000E+00  1.0000000E-01  1.0135613E+02 -9.1789281E-02 -2.0256013E+04
 7.9000000E+00  1.0000000E-01  1.0154837E+02 -1.0044723E-01 -2.0257893E+04
 8.1000000E+00  1.0000000E-01  1.0175737E+02 -1.0855729E-01 -2.0257828E+04
 8.3000000E+00  1.0000000E-01  1.0198155E+02 -1.1562385E-01 -2.0255127E+04
 8.5000000E+00  1.0000000E-01  1.0221824E+02 -1.2106018E-01 -2.0248951E+04
 8.7000000E+00  1.0000000E-01  1.0246351E+02 -1.2420991E-01 -2.0238296E+04
 8.9000000E+00  1.0000000E-01  1.0271210E+02 -1.2438657E-01 -2.0221997E+04
 9.1000000E+00  1.0000000E-01  1.0295742E+02 -1.2093299E-01 -2.0198741E+04
 9.3000000E+00  1.0000000E-01  1.0319165E+02 -1.1329866E-01 -2.0167096E+04
 9.5000000E+00  1.0000000E-01  1.0340608E+02 -1.0112833E-01 -2.0125566E+04
 9.7000000E+00  1.0000000E-01  1.0359156E+02 -8.4349168E-02 -2.0072666E+04
 9.9000000E+00  1.0000000E-01  1.0373915E+02 -6.3239269E-02 -2.0007009E+04
 1.0100000E+01  1.0000000E-01  1.0384084E+02 -3.8458921E-02 -1.9927411E+04
 1.0300000E+01  1.0000000E-01  1.0389033E+02 -1.1029807E-02 -1.9832989E+04
 1.0500000E+01  1.0000000E-01  1.0388362E+02  1.7743146E-02 -1.9723243E+04
 1.0700000E+01  1.0000000E-01  1.0381948E+02  4.6399418E-02 -1.9598110E+04
 1.0900000E+01  1.0000000E-01  1.0369960E+02  7.3479487E-02 -1.9457978E+04
 1.1100000E+01  1.0000000E-01  1.0352844E+02  9.7681864E-02 -1.9303657E+04
 1.1300000E+01  1.0000000E-01  1.0331276E+02  1.1799192E-01 -1.9136314E+04
 1.1500000E+01  1.0000000E-01  1.0306101E+02  1.3376137E-01 -1.8957383E+04
 1.1700000E+01  1.0000000E-01  1.0278252E+02  1.4473002E-01 -1.8768455E+04
 1.1900000E+01  1.0000000E-01  1.0248679E+02  1.5099462E-01 -1.8571175E+04
 1.2100000E+01  1.0000000E-01  1.0218286E+02  1.5293957E-01 -1.8367153E+04
 1.2300000E+01  1.0000000E-01  1.0187877E+02  1.5114816E-01 -1.8157888E+04
 1.2500000E+01  1.0000000E-01  1.0158131E+02  1.4631209E-01 -1.7944723E+04
 1.2700000E+01  1.0000000E-01  1.0129585E+02  1.3915201E-01 -1.7728815E+04
 1.2900000E+01  1.0000000E-01  1.0102634E+02  1.3035633E-01 -1.7511132E+04
 1.3100000E+01  1.0000000E-01  1.0077544E+02  1.2054030E-01 -1.7292456E+04
 1.3300000E+01  1.0000000E-01  1.0054468E+02  1.1022367E-01 -1.7073400E+04
 1.3500000E+01  1.0000000E-01  1.0033463E+02  9.9823287E-02 -1.6854430E+04
 1.3700000E+01  1.0000000E-01  1.0014515E+02  8.9656407E-02 -1.6635886E+04
 1.3900000E+01  1.0000000E-01  9.9975545E+01  7.9950627E-02 -1.6418005E+04
 1.4100000E+01  1.0000000E-01  9.9824737E+01  7.0857231E-02 -1.6200944E+04
 1.4300000E+01  1.0000000E-01  9.9691414E+01  6.2465524E-02 -1.5984794E+04
 1.4500000E+01  1.0000000E-01  9.9574132E+01  5.4816589E-02 -1.5769602E+04
 1.4700000E+01  1.0000000E-01  9.9471400E+01  4.7915566E-02 -1.5555375E+04
 1.4900000E+01  1.0000000E-01  9.9381742E+01  4.1742038E-02 -1.5342097E+04
 1.5100000E+01  1.0000000E-01  9.9303742E+01  3.6258463E-02 -1.5129736E+04
 1.5300000E+01  1.0000000E-01  9.9236066E+01  3.1416760E-02 -1.4918246E+04
 1.5500000E+01  1.0000000E-01  9.9177486E+01  2.7163281E-02 -1.4707576E+04
 1.5700000E+01  1.0000000E-01  9.9126881E+01  2.3442440E-02 -1.4497673E+04
 1.5900000E+01  1.0000000E-01  9.9083239E+01  2.0199255E-02 -1.4288480E+04
 1.6100000E+01  1.0000000E-01  9.9045659E+01  1.7381041E-02 -1.4079942E+04
 1.6300000E+01  1.0000000E-01  9.9013339E+01  1.4938468E-02 -1.3872009E+04
 1.6500000E+01  1.0000000E-01  9.8985575E+01  1.2826138E-02 -1.3664628E+04
 1.6700000E+01  1.0000000E-01  9.8961746E+01  1.1002836E-02 -1.3457754E+04
 1.6900000E+01  1.0000000E-01  9.8941311E+01  9.4315381E-03 -1.3251343E+04
 1.7100000E+01  1.0000000E-01  9.8923800E+01  8.0792662E-03 -1.3045355E+04
 1.7300000E+01  1.0000000E-01  9.8908804E+01  6.9168515E-03 -1.2839751E+04
 1.7500000E+01  1.0000000E-01  9.8895969E+01  5.9186393E-03 -1.2634499E+04
 1.7700000E+01  1.0000000E-01  9.8884988E+01  5.0621715E-03 -1.2429568E+04
 1.7900000E+01  1.0000000E-01  9.8875598E+01  4.3278642E-03 -1.2224928E+04
 1.8100000E+01  1.0000000E-01  9.8867571E+01  3.6986957E-03 -1.2020554E+04
 1.8300000E+01  1.0000000E-01  9.8860713E+01  3.1599104E-03 -1.1816424E+04
 1.8500000E+01  1.0000000E-01  9.8854854E+01  2.6987470E-03 -1.1612514E+04
 1.8700000E+01  1.0000000E-01  9.8849851E+01  2.3041899E-03 -1.1408806E+04
 1.8900000E+01  1.0000000E-01  9.8845580E+01  1.9667450E-03 -1.1205283E+04
 1.9100000E+01  1.0000000E-01  9.8841935E+01  1.6782418E-03 -1.1001928E+04
 1.9300000E+01  1.0000000E-01  9.8838825E+01  1.4316562E-03 -1.0798728E+04
 1.9500000E+01  1.0000000E-01  9.8836173E+01  1.2209557E-03 -1.0595668E+04
 1.9700000E+01  1.0000000E-01  9.8833911E+01  1.0409639E-03 -1.0392737E+04
 1.9900000E+01  1.0000000E-01  9.8831983E+01  8.8724187E-04 -1.0189923E+04
 2.0100000E+01  1.0000000E-01  9.8830339E+01  7.5598552E-04 -9.9872179E+03
 2.0300000E+01  1.0000000E-01  9.8828939E+01  6.4393645E-04 -9.7846115E+03
 2.0500000E+01  1.0000000E-01  9.8827747E+01  5.4830478E-04 -9.5820957E+03
 2.0700000E+01  1.0000000E-01  9.8826732E+01  4.6670292E-04 -9.3796632E+03
 2.0900000E+01  1.0000000E-01  9.8825868E+01  3.9708806E-04 -9.1773070E+03
 2.1100000E+01  1.0000000E-01  9.8825134E+01  3.3771299E-04 -8.9750208E+03
 2.1300000E+01  1.0000000E-01  9.8824509E+01  2.8708352E-04 -8.7727991E+03
 2.1500000E+01  1.0000000E-01  9.8823978E+01  2.4392227E-04 -8.5706364E+03
 2.1700000E+01  1.0000000E-01  9.8823527E+01  2.0713726E-04 -8.3685282E+03
 2.1900000E+01  1.0000000E-01  9.8823144E+01  1.7579538E-04 -8.1664698E+03
 2.2100000E+01  1.0000000E-01  9.8822819E+01  1.4909928E-04 -7.9644575E+03
 2.2300000E+01  1.0000000E-01  9.8822543E+01  1.2636778E-04 -7.7624875E+03
 2.2500000E+01  1.0000000E-01  9.8822310E+01  1.0701876E-04 -7.5605563E+03
 2.2700000E+01  1.0000000E-01  9.8822112E+01  9.0555283E-05 -7.3586610E+03
 2.2900000E+01  1.0000000E-01  9.8821945E+01  7.6552867E-05 -7.1567987E+03
 2.3100000E+01  1.0000000E-01  9.8821804E+01  6.4649041E-05 -6.9549667E+03
 2.3300000E+01  1.0000000E-01  9.8821685E+01  5.4534305E-05 -6.7531627E+03
 2.3500000E+01  1.0000000E-01  9.8821585E+01  4.5944472E-05 -6.5513844E+03
 2.3700000E+01  1.0000000E-01  9.8821500E+01  3.8654028E-05 -6.3496298E+03
 2.3900000E+01  1.0000000E-01  9.8821429E+01  3.2470540E-05 -6.1478971E+03
 2.4100000E+01  1.0000000E-01  9.8821369E+01  2.7229786E-05 -5.9461846E+03
 2.4300000E+01  1.0000000E-01  9.8821319E+01  2.2791713E-05 -5.7444905E+03
 2.4500000E+01  1.0000000E-01  9.8821277E+01  1.9036691E-05 -5.5428135E+03
 2.4700000E+01  1.0000000E-01  9.8821242E+01  1.5862884E-05 -5.3411523E+03
 2.4900000E+01  1.0000000E-01  9.8821213E+01  1.3183319E-05 -5.1395055E+03
 2.5100000E+01  1.0000000E-01  9.8821189E+01  1.0923877E-05 -4.9378721E+03
 2.5300000E+01  1.0000000E-01  9.8821169E+01  9.0214612E-06 -4.7362509E+03
 2.5500000E+01  1.0000000E-01  9.8821153E+01  7.4221684E-06 -4.5346411E+03
 2.5700000E+01  1.0000000E-01  9.8821139E+01  6.0801664E-06 -4.3330416E+03
 2.5900000E+01  1.0000000E-01  9.8821128E+01  4.9564799E-06 -4.1314516E+03
 2.6100000E+01  1.0000000E-01  9.8821119E+01  4.0178731E-06 -3.9298703E+03
 2.6300000E+01  1.0000000E-01  9.8821112E+01  3.2360509E-06 -3.7282971E+03
 2.6500000E+01  1.0000000E-01  9.8821106E+01  2.5869574E-06 -3.5267312E+03
 2.6700000E+01  1.0000000E-01  9.8821102E+01  2.0500739E-06 -3.3251720E+03
 2.6900000E+01  1.0000000E-01  9.8821098E+01  1.6080012E-06 -3.1236190E+03
 2.7100000E+01  1.0000000E-01  9.8821095E+01  1.2459809E-06 -2.9220715E+03
 2.7300000E+01  1.0000000E-01  9.8821093E+01  9.5140971E-07 -2.7205291E+03
 2.7500000E+01  1.0000000E-01  9.8821091E+01  7.1361099E-07 -2.5189914E+03
 2.7700000E+01  1.0000000E-01  9.8821090E+01  5.2350896E-07 -2.3174578E+03
 2.7900000E+01  1.0000000E-01  9.8821089E+01  3.7339007E-07 -2.1159279E+03
 2.8100000E+01  1.0000000E-01  9.8821088E+01  2.5665352E-07 -1.9144014E+03
 2.8300000E+01  1.0000000E-01  9.8821088E+01  1.6766064E-07 -1.7128779E+03
 2.8500000E+01  1.0000000E-01  9.8821088E+01  1.0164121E-07 -1.5113569E+03
 2.8700000E+01  1.0000000E-01  9.8821088E+01  5.4481768E-08 -1.3098382E+03
 2.8900000E+01  1.0000000E-01  9.8821087E+01  2.2643363E-08 -1.1083214E+03
 2.9100000E+01  1.0000000E-01  9.8821087E+01  3.1040700E-09 -9.0680622E+02
 2.9300000E+01  1.0000000E-01  9.8821087E+01 -6.7552792E-09 -7.0529233E+02
 2.9500000E+01  1.0000000E-01  9.8821087E+01 -9.4073028E-09 -5.0377944E+02
 2.9700000E+01  1.0000000E-01  9.8821088E+01 -7.0887197E-09 -3.0226724E+02
 2.9900000E+01  1.0000000E-01  9.8821088E+01 -1.8790554E-09 -1.0075549E+02
 1.0000000E-01  3.0000000E-01  1.0000046E+02  2.0520515E-03 -2.0137897E+04
 3.0000000E-01  3.0000000E-01  1.0000091E+02  1.0484613E-03 -2.0139965E+04
 5.0000000E-01  3.0000000E-01  1.0000083E+02  5.1259033E-04 -2.0142126E+04
 7.0000000E-01  3.0000000E-01  1.0000073E+02  1.7586126E-04 -2.0144077E+04
 9.0000000E-01  3.0000000E-01  1.0000074E+02 -9.9878447E-05 -2.0145840E+04
 1.1000000E+00  3.0000000E-01  1.0000090E+02 -3.7492037E-04 -2.0147478E+04
 1.3000000E+00  3.0000000E-01  1.0000123E+02 -6.7995797E-04 -2.0149046E+04
 1.5000000E+00  3.0000000E-01  1.0000178E+02 -1.0344744E-03 -2.0150587E+04
 1.7000000E+00  3.0000000E-01  1.0000258E+02 -1.4541060E-03 -2.0152132E+04
 1.9000000E+00  3.0000000E-01  1.0000367E+02 -1.9538717E-03 -2.0153705E+04
 2.1000000E+00  3.0000000E-01  1.0000513E+02 -2.5497866E-03 -2.0155324E+04
 2.3000000E+00  3.0000000E-01  1.0000701E+02 -3.2598268E-03 -2.0157006E+04
 2.5000000E+00  3.0000000E-01  1.0000940E+02 -4.1046364E-03 -2.0158766E+04
 2.7000000E+00  3.0000000E-01  1.0001239E+02 -5.1081487E-03 -2.0160616E+04
 2.9000000E+00  3.0000000E-01  1.0001610E+02 -6.2981980E-03 -2.0162567E+04
 3.1000000E+00  3.0000000E-01  1.0002067E+02 -7.7071633E-03 -2.0164632E+04
 3.3000000E+00  3.0000000E-01  1.0002624E+02 -9.3726633E-03 -2.0166823E+04
 3.5000000E+00  3.0000000E-01  1.0003299E+02 -1.1338311E-02 -2.0169150E+04
 3.7000000E+00  3.0000000E-01  1.0004115E+02 -1.3654528E-02 -2.0171625E+04
 3.9000000E+00  3.0000000E-01  1.0005097E+02 -1.6379414E-02 -2.0174260E+04
 4.1000000E+00  3.0000000E-01  1.0006273E+02 -1.9579642E-02 -2.0177068E+04
 4.3000000E+00  3.0000000E-01  1.0007676E+02 -2.3331363E-02 -2.0180060E+04
 4.5000000E+00  3.0000000E-01  1.0009348E+02 -2.7721050E-02 -2.0183248E+04
 4.7000000E+00  3.0000000E-01  1.0011331E+02 -3.2846219E-02 -2.0186645E+04
 4.9000000E+00  3.0000000E-01  1.0013680E+02 -3.8815898E-02 -2.0190261E+04
 5.1000000E+00  3.0000000E-01  1.0016453E+02 -4.5750705E-02 -2.0194107E+04
 5.3000000E+00  3.0000000E-01  1.0019719E+02 -5.3782303E-02 -2.0198192E+04
 5.5000000E+00  3.0000000E-01  1.0023555E+02 -6.3051956E-02 -2.0202522E+04
 5.7000000E+00  3.0000000E-01  1.0028049E+02 -7.3707802E-02 -2.0207097E+04
 5.9000000E+00  3.0000000E-01  1.0033298E+02 -8.5900369E-02 -2.0211914E+04
 6.1000000E+00  3.0000000E-01  1.0039410E+02 -9.9775756E-02 -2.0216960E+04
 6.3000000E+00  3.0000000E-01  1.0046502E+02 -1.1546576E-01 -2.0222210E+04
 6.5000000E+00  3.0000000E-01  1.0054702E+02 -1.3307419E-01 -2.0227624E+04
 6.7000000E+00  3.0000000E-01  1.0064140E+02 -1.5265855E-01 -2.0233140E+04
 6.9000000E+00  3.0000000E-01  1.0074953E+02 -1.7420633E-01 -2.0238668E+04
 7.1000000E+00  3.0000000E-01  1.0087273E+02 -1.9760547E-01 -2.0244077E+04
 7.3000000E+00  3.0000000E-01  1.0101221E+02 -2.2260898E-01 -2.0249191E+04
 7.5000000E+00  3.0000000E-01  1.0116900E+02 -2.4879475E-01 -2.0253770E+04
 7.7000000E+00  3.0000000E-01  1.0134378E+02 -2.7552283E-01 -2.0257492E+04
 7.9000000E+00  3.0000000E-01  1.0153673E+02 -3.0189466E-01 -2.0259940E+04
 8.1000000E+00  3.0000000E-01  1.0174733E+02 -3.2672088E-01 -2.0260579E+04
 8.3000000E+00  3.0000000E-01  1.0197420E+02 -3.4850764E-01 -2.0258733E+04
 8.5000000E+00  3.0000000E-01  1.0221481E+02 -3.6547329E-01 -2.0253571E+04
 8.7000000E+00  3.0000000E-01  1.0246535E+02 -3.7560912E-01 -2.0244088E+04
 8.9000000E+00  3.0000000E-01  1.0272057E+02 -3.7679631E-01 -2.0229104E+04
 9.1000000E+00  3.0000000E-01  1.0297371E+02 -3.6698589E-01 -2.0207271E+04
 9.3000000E+00  3.0000000E-01  1.0321667E+02 -3.4443778E-01 -2.0177106E+04
 9.5000000E+00  3.0000000E-01  1.0344025E+02 -3.0799903E-01 -2.0137041E+04
 9.7000000E+00  3.0000000E-01  1.0363468E+02 -2.5738262E-01 -2.0085499E+04
 9.9000000E+00  3.0000000E-01  1.0379028E+02 -1.9339159E-01 -2.0020997E+04
 1.0100000E+01  3.0000000E-01  1.0389830E+02 -1.1802762E-01 -1.9942258E+04
 1.0300000E+01  3.0000000E-01  1.0395178E+02 -3.4433970E-02 -1.9848320E+04
 1.0500000E+01  3.0000000E-01  1.0394630E+02  5.3346857E-02 -1.9738634E+04
 1.0700000E+01  3.0000000E-01  1.0388046E+02  1.4077665E-01 -1.9613123E+04
 1.0900000E+01  3.0000000E-01  1.0375612E+02  2.2331972E-01 -1.9472200E+04
 1.1100000E+01  3.0000000E-01  1.0357818E+02  2.9694271E-01 -1.9316738E+04
 1.1300000E+01  3.0000000E-01  1.0335406E+02  3.5852220E-01 -1.9147993E+04
 1.1500000E+01  3.0000000E-01  1.0309296E+02  4.0609156E-01 -1.8967498E+04
 1.1700000E+01  3.0000000E-01  1.0280495E+02  4.3890132E-01 -1.8776945E+04
 1.1900000E+01  3.0000000E-01  1.0250018E+02  4.5731108E-01 -1.8578070E+04
 1.2100000E+01  3.0000000E-01  1.0218818E+02  4.6256272E-01 -1.8372552E+04
 1.2300000E+01  3.0000000E-01  1.0187729E+02  4.5649673E-01 -1.8161942E+04
 1.2500000E+01  3.0000000E-01  1.0157445E+02  4.4126765E-01 -1.7947607E+04
 1.2700000E+01  3.0000000E-01  1.0128501E+02  4.1909865E-01 -1.7730717E+04
 1.2900000E+01  3.0000000E-01  1.0101283E+02  3.9209592E-01 -1.7512235E+04
 1.3100000E+01  3.0000000E-01  1.0076040E+02  3.6212760E-01 -1.7292928E+04
 1.3300000E+01  3.0000000E-01  1.0052904E+02  3.3076032E-01 -1.7073390E+04
 1.3500000E+01  3.0000000E-01  1.0031914E+02  2.9924140E-01 -1.6854064E+04
 1.3700000E+01  3.0000000E-01  1.0013034E+02  2.6851266E-01 -1.6635269E+04
 1.3900000E+01  3.0000000E-01  9.9961798E+01  2.3924354E-01 -1.6417221E+04
 1.4100000E+01  3.0000000E-01  9.9812297E+01  2.1187359E-01 -1.6200058E+04
 1.4300000E+01  3.0000000E-01  9.9680412E+01  1.8665696E-01 -1.5983857E+04
 1.4500000E+01  3.0000000E-01  9.9564614E+01  1.6370463E-01 -1.5768649E+04
 1.4700000E+01  3.0000000E-01  9.9463352E+01  1.4302163E-01 -1.5554434E+04
 1.4900000E+01  3.0000000E-01  9.9375108E+01  1.2453827E-01 -1.5341187E+04
 1.5100000E+01  3.0000000E-01  9.9298435E+01  1.0813536E-01 -1.5128868E+04
 1.5300000E+01  3.0000000E-01  9.9231987E+01  9.3663649E-02 -1.4917427E+04
 1.5500000E+01  3.0000000E-01  9.9174524E+01  8.0958583E-02 -1.4706811E+04
 1.5700000E+01  3.0000000E-01  9.9124926E+01  6.9850855E-02 -1.4496962E+04
 1.5900000E+01  3.0000000E-01  9.9082185E+01  6.0173819E-02 -1.4287823E+04
 1.6100000E+01  3.0000000E-01  9.9045404E+01  5.1768366E-02 -1.4079338E+04
 1.6300000E+01  3.0000000E-01  9.9013788E+01  4.4485916E-02 -1.3871454E+04
 1.6500000E+01  3.0000000E-01  9.8986642E+01  3.8190036E-02 -1.3664120E+04
 1.6700000E+01  3.0000000E-01  9.8963352E+01  3.2757064E-02 -1.3457290E+04
 1.6900000E+01  3.0000000E-01  9.8943388E+01  2.8076067E-02 -1.3250920E+04
 1.7100000E+01  3.0000000E-01  9.8926285E+01  2.4048352E-02 -1.3044968E+04
 1.7300000E+01  3.0000000E-01  9.8911642E+01  2.0586703E-02 -1.2839399E+04
 1.7500000E+01  3.0000000E-01  9.8899112E+01  1.7614474E-02 -1.2634178E+04
 1.7700000E+01  3.0000000E-01  9.8888395E+01  1.5064611E-02 -1.2429275E+04
 1.7900000E+01  3.0000000E-01  9.8879232E+01  1.2878674E-02 -1.2224661E+04
 1.8100000E+01  3.0000000E-01  9.8871400E+01  1.1005892E-02 -1.2020311E+04
 1.8300000E+01  3.0000000E-01  9.8864709E+01  9.4022701E-03 -1.1816202E+04
 1.8500000E+01  3.0000000E-01  9.8858994E+01  8.0297725E-03 -1.1612311E+04
 1.8700000E+01  3.0000000E-01  9.8854115E+01  6.8555746E-03 -1.1408622E+04
 1.8900000E+01  3.0000000E-01  9.8849950E+01  5.8513938E-03 -1.1205114E+04
 1.9100000E+01  3.0000000E-01  9.8846396E+01  4.9928938E-03 -1.1001774E+04
 1.9300000E+01  3.0000000E-01  9.8843363E+01  4.2591570E-03 -1.0798587E+04
 1.9500000E+01  3.0000000E-01  9.8840777E+01  3.6322215E-03 -1.0595539E+04
 1.9700000E+01  3.0000000E-01  9.8838572E+01  3.0966758E-03 -1.0392618E+04
 1.9900000E+01  3.0000000E-01  9.8836692E+01  2.6393060E-03 -1.0189815E+04
 2.0100000E+01  3.0000000E-01  9.8835091E+01  2.2487886E-03 -9.9871188E+03
 2.0300000E+01  3.0000000E-01  9.8833726E+01  1.9154253E-03 -9.7845207E+03
 2.0500000E+01  3.0000000E-01  9.8832565E+01  1.6309131E-03 -9.5820124E+03
 2.0700000E+01  3.0000000E-01  9.8831576E+01  1.3881463E-03 -9.3795868E+03
 2.0900000E+01  3.0000000E-01  9.8830734E+01  1.1810456E-03 -9.1772368E+03
 2.1100000E+01  3.0000000E-01  9.8830018E+01  1.0044115E-03 -8.9749564E+03
 2.1300000E+01  3.0000000E-01  9.8829410E+01  8.5379782E-04 -8.7727399E+03
 2.1500000E+01  3.0000000E-01  9.8828892E+01  7.2540358E-04 -8.5705821E+03
 2.1700000E+01  3.0000000E-01  9.8828453E+01  6.1597979E-04 -8.3684782E+03
 2.1900000E+01  3.0000000E-01  9.8828080E+01  5.2274989E-04 -8.1664239E+03
 2.2100000E+01  3.0000000E-01  9.8827764E+01  4.4334142E-04 -7.9644152E+03
 2.2300000E+01  3.0000000E-01  9.8827496E+01  3.7572746E-04 -7.7624486E+03
 2.2500000E+01  3.0000000E-01  9.8827269E+01  3.1817652E-04 -7.5605205E+03
 2.2700000E+01  3.0000000E-01  9.8827076E+01  2.6920977E-04 -7.3586280E+03
 2.2900000E+01  3.0000000E-01  9.8826914E+01  2.2756428E-04 -7.1567683E+03
 2.3100000E+01  3.0000000E-01  9.8826777E+01  1.9216164E-04 -6.9549387E+03
 2.3300000E+01  3.0000000E-01  9.8826661E+01  1.6208111E-04 -6.7531369E+03
 2.3500000E+01  3.0000000E-01  9.8826563E+01  1.3653668E-04 -6.5513607E+03
 2.3700000E+01  3.0000000E-01  9.8826481E+01  1.1485747E-04 -6.3496080E+03
 2.3900000E+01  3.0000000E-01  9.8826412E+01  9.6470927E-05 -6.1478770E+03
 2.4100000E+01  3.0000000E-01  9.8826354E+01  8.0888506E-05 -5.9461660E+03
 2.4300000E+01  3.0000000E-01  9.8826305E+01  6.7693395E-05 -5.7444734E+03
 2.4500000E+01  3.0000000E-01  9.8826265E+01  5.6530024E-05 -5.5427978E+03
 2.4700000E+01  3.0000000E-01  9.8826231E+01  4.7095179E-05 -5.3411378E+03
 2.4900000E+01  3.0000000E-01  9.8826203E+01  3.9130287E-05 -5.1394922E+03
 2.5100000E+01  3.0000000E-01  9.8826179E+01  3.2414924E-05 -4.9378598E+03
 2.5300000E+01  3.0000000E-01  9.8826160E+01  2.6761232E-05 -4.7362397E+03
 2.5500000E+01  3.0000000E-01  9.8826144E+01  2.2009118E-05 -4.5346307E+03
 2.5700000E+01  3.0000000E-01  9.8826131E+01  1.8022225E-05 -4.3330320E+03
 2.5900000E+01  3.0000000E-01  9.8826121E+01  1.4684449E-05 -4.1314428E+03
 2.6100000E+01  3.0000000E-01  9.8826112E+01  1.1896936E-05 -3.9298623E+03
 2.6300000E+01  3.0000000E-01  9.8826105E+01  9.5755458E-06 -3.7282898E+03
 2.6500000E+01  3.0000000E-01  9.8826099E+01  7.6486931E-06 -3.5267245E+03
 2.6700000E+01  3.0000000E-01  9.8826095E+01  6.0554797E-06 -3.3251659E+03
 2.6900000E+01  3.0000000E-01  9.8826091E+01  4.7441376E-06 -3.1236134E+03
 2.7100000E+01  3.0000000E-01  9.8826089E+01  3.6706711E-06 -2.9220665E+03
 2.7300000E+01  3.0000000E-01  9.8826087E+01  2.7976777E-06 -2.7205246E+03
 2.7500000E+01  3.0000000E-01  9.8826085E+01  2.0933790E-06 -2.5189873E+03
 2.7700000E+01  3.0000000E-01  9.8826084E+01  1.5307677E-06 -2.3174541E+03
 2.7900000E+01  3.0000000E-01  9.8826083E+01  1.0868799E-06 -2.1159246E+03
 2.8100000E+01  3.0000000E-01  9.8826083E+01  7.4216352E-07 -1.9143985E+03
 2.8300000E+01  3.0000000E-01  9.8826082E+01  4.7995454E-07 -1.7128753E+03
 2.8500000E+01  3.0000000E-01  9.8826082E+01  2.8603096E-07 -1.5113546E+03
 2.8700000E+01  3.0000000E-01  9.8826082E+01  1.4820020E-07 -1.3098363E+03
 2.8900000E+01  3.0000000E-01  9.8826082E+01  5.5961529E-08 -1.1083198E+03
 2.9100000E+01  3.0000000E-01  9.8826082E+01  2.1202930E-10 -9.0680490E+02
 2.9300000E+01  3.0000000E-01  9.8826082E+01 -2.7034592E-08 -7.0529131E+02
 2.9500000E+01  3.0000000E-01  9.8826082E+01 -3.2927061E-08 -5.0377871E+02
 2.9700000E+01  3.0000000E-01  9.8826082E+01 -2.3950879E-08 -3.0226682E+02
 2.9900000E+01  3.0000000E-01  9.8826082E+01 -6.6577675E-09 -1.0075535E+02
 1.0000000E-01  5.0000000E-01  1.0000018E+02  1.4105950E-03 -2.0140735E+04
 3.0000000E-01  5.0000000E-01  1.0000039E+02  1.0262137E-03 -2.0141756E+04
 5.0000000E-01  5.0000000E-01  1.0000040E+02  6.0445098E-04 -2.0143172E+04
 7.0000000E-01  5.0000000E-01  1.0000037E+02  2.1755009E-04 -2.0144680E+04
 9.0000000E-01  5.0000000E-01  1.0000039E+02 -1.6961266E-04 -2.0146181E+04
 1.1000000E+00  5.0000000E-01  1.0000052E+02 -5.9232206E-04 -2.0147659E+04
 1.3000000E+00  5.0000000E-01  1.0000080E+02 -1.0785553E-03 -2.0149123E+04
 1.5000000E+00  5.0000000E-01  1.0000127E+02 -1.6518573E-03 -2.0150592E+04
 1.7000000E+00  5.0000000E-01  1.0000197E+02 -2.3344819E-03 -2.0152084E+04
 1.9000000E+00  5.0000000E-01  1.0000295E+02 -3.1495973E-03 -2.0153615E+04
 2.1000000E+00  5.0000000E-01  1.0000426E+02 -4.1227994E-03 -2.0155201E+04
 2.3000000E+00  5.0000000E-01  1.0000598E+02 -5.2832531E-03 -2.0156854E+04
 2.5000000E+00  5.0000000E-01  1.0000817E+02 -6.6646725E-03 -2.0158588E+04
 2.7000000E+00  5.0000000E-01  1.0001094E+02 -8.3062645E-03 -2.0160413E+04
 2.9000000E+00  5.0000000E-01  1.0001438E+02 -1.0253704E-02 -2.0162341E+04
 3.1000000E+00  5.0000000E-01  1.0001863E+02 -1.2560185E-02 -2.0164383E+04
 3.3000000E+00  5.0000000E-01  1.0002382E+02 -1.5287567E-02 -2.0166550E+04
 3.5000000E+00  5.0000000E-01  1.0003015E+02 -1.8507635E-02 -2.0168854E+04
 3.7000000E+00  5.0000000E-01  1.0003781E+02 -2.2303463E-02 -2.0171306E+04
 3.9000000E+00  5.0000000E-01  1.0004703E+02 -2.6770884E-02 -2.0173918E+04
 4.1000000E+00  5.0000000E-01  1.0005811E+02 -3.2020028E-02 -2.0176701E+04
 4.3000000E+00  5.0000000E-01  1.0007136E+02 -3.8176873E-02 -2.0179670E+04
 4.5000000E+00  5.0000000E-01  1.0008715E+02 -4.5384753E-02 -2.0182835E+04
 4.7000000E+00  5.0000000E-01  1.0010594E+02 -5.3805673E-02 -2.0186211E+04
 4.9000000E+00  5.0000000E-01  1.0012822E+02 -6.3621277E-02 -2.0189808E+04
 5.1000000E+00  5.0000000E-01  1.0015458E+02 -7.5033210E-02 -2.0193641E+04
 5.3000000E+00  5.0000000E-01  1.0018568E+02 -8.8262536E-02 -2.0197718E+04
 5.5000000E+00  5.0000000E-01  1.0022230E+02 -1.0354774E-01 -2.0202048E+04
 5.7000000E+00  5.0000000E-01  1.0026529E+02 -1.2114073E-01 -2.0206638E+04
 5.9000000E+00  5.0000000E-01  1.0031563E+02 -1.4130000E-01 -2.0211489E+04
 6.1000000E+00  5.0000000E-01  1.0037441E+02 -1.6428003E-01 -2.0216594E+04
 6.3000000E+00  5.0000000E-01  1.0044284E+02 -1.9031573E-01 -2.0221938E+04
 6.5000000E+00  5.0000000E-01  1.0052222E+02 -2.1960050E-01 -2.0227493E+04
 6.7000000E+00  5.0000000E-01  1.0061396E+02 -2.5225653E-01 -2.0233212E+04
 6.9000000E+00  5.0000000E-01  1.0071952E+02 -2.8829579E-01 -2.0239022E+04
 7.1000000E+00  5.0000000E-01  1.0084038E+02 -3.2757077E-01 -2.0244819E+04
 7.3000000E+00  5.0000000E-01  1.0097796E+02 -3.6971439E-01 -2.0250451E+04
 7.5000000E+00  5.0000000E-01  1.0113355E+02 -4.1407038E-01 -2.0255710E+04
 7.7000000E+00  5.0000000E-01  1.0130815E+02 -4.5961728E-01 -2.0260313E+04
 7.9000000E+00  5.0000000E-01  1.0150230E+02 -5.0489276E-01 -2.0263880E+04
 8.1000000E+00  5.0000000E-01  1.0171590E+02 -5.4792942E-01 -2.0265912E+04
 8.3000000E+00  5.0000000E-01  1.0194795E+02 -5.8621840E-01 -2.0265767E+04
 8.5000000E+00  5.0000000E-01  1.0219630E+02 -6.1672236E-01 -2.0262634E+04
 8.7000000E+00  5.0000000E-01  1.0245736E+02 -6.3596327E-01 -2.0255511E+04
 8.9000000E+00  5.0000000E-01  1.0272591E+02 -6.4021000E-01 -2.0243189E+04
 9.1000000E+00  5.0000000E-01  1.0299498E+02 -6.2578267E-01 -2.0224260E+04
 9.3000000E+00  5.0000000E-01  1.0325585E+02 -5.8947334E-01 -2.0197131E+04
 9.5000000E+00  5.0000000E-01  1.0349836E+02 -5.2905263E-01 -2.0160086E+04
 9.7000000E+00  5.0000000E-01  1.0371140E+02 -4.4379509E-01 -2.0111363E+04
 9.9000000E+00  5.0000000E-01  1.0388374E+02 -3.3492017E-01 -2.0049272E+04
 1.0100000E+01  5.0000000E-01  1.0400505E+02 -2.0582811E-01 -1.9972335E+04
 1.0300000E+01  5.0000000E-01  1.0406696E+02 -6.2026038E-02 -1.9879421E+04
 1.0500000E+01  5.0000000E-01  1.0406408E+02  8.9302325E-02 -1.9769872E+04
 1.0700000E+01  5.0000000E-01  1.0399470E+02  2.4004278E-01 -1.9643583E+04
 1.0900000E+01  5.0000000E-01  1.0386100E+02  3.8208358E-01 -1.9501023E+04
 1.1100000E+01  5.0000000E-01  1.0366887E+02  5.0825186E-01 -1.9343198E+04
 1.1300000E+01  5.0000000E-01  1.0342713E+02  6.1306843E-01 -1.9171550E+04
 1.1500000E+01  5.0000000E-01  1.0314660E+02  6.9318798E-01 -1.8987828E+04
 1.1700000E+01  5.0000000E-01  1.0283893E+02  7.4747985E-01 -1.8793938E+04
 1.1900000E+01  5.0000000E-01  1.0251563E+02  7.7679321E-01 -1.8591801E+04
 1.2100000E+01  5.0000000E-01  1.0218721E+02  7.8351118E-01 -1.8383242E+04
 1.2300000E+01  5.0000000E-01  1.0186263E+02  7.7101599E-01 -1.8169909E+04
 1.2500000E+01  5.0000000E-01  1.0154905E+02  7.4317051E-01 -1.7953225E+04
 1.2700000E+01  5.0000000E-01  1.0125180E+02  7.0388601E-01 -1.7734373E+04
 1.2900000E+01  5.0000000E-01  1.0097447E+02  6.5680769E-01 -1.7514303E+04
 1.3100000E+01  5.0000000E-01  1.0071920E+02  6.0511993E-01 -1.7293751E+04
 1.3300000E+01  5.0000000E-01  1.0048687E+02  5.5145420E-01 -1.7073267E+04
 1.3500000E+01  5.0000000E-01  1.0027745E+02  4.9787440E-01 -1.6853250E+04
 1.3700000E+01  5.0000000E-01  1.0009022E+02  4.4591381E-01 -1.6633971E+04
 1.3900000E+01  5.0000000E-01  9.9923959E+01  3.9664135E-01 -1.6415604E+04
 1.4100000E+01  5.0000000E-01  9.9777196E+01  3.5074022E-01 -1.6198251E+04
 1.4300000E+01  5.0000000E-01  9.9648284E+01  3.0858727E-01 -1.5981958E+04
 1.4500000E+01  5.0000000E-01  9.9535529E+01  2.7032613E-01 -1.5766729E+04
 1.4700000E+01  5.0000000E-01  9.9437261E+01  2.3593047E-01 -1.5552544E+04
 1.4900000E+01  5.0000000E-01  9.9351879E+01  2.0525620E-01 -1.5339362E+04
 1.5100000E+01  5.0000000E-01  9.9277886E+01  1.7808288E-01 -1.5127131E+04
 1.5300000E+01  5.0000000E-01  9.9213905E+01  1.5414549E-01 -1.4915793E+04
 1.5500000E+01  5.0000000E-01  9.9158686E+01  1.3315792E-01 -1.4705285E+04
 1.5700000E+01  5.0000000E-01  9.9111106E+01  1.1482977E-01 -1.4495546E+04
 1.5900000E+01  5.0000000E-01  9.9070164E+01  9.8877827E-02 -1.4286515E+04
 1.6100000E+01  5.0000000E-01  9.9034977E+01  8.5033570E-02 -1.4078135E+04
 1.6300000E+01  5.0000000E-01  9.9004765E+01  7.3047555E-02 -1.3870351E+04
 1.6500000E+01  5.0000000E-01  9.8978848E+01  6.2691678E-02 -1.3663111E+04
 1.6700000E+01  5.0000000E-01  9.8956633E+01  5.3759876E-02 -1.3456367E+04
 1.6900000E+01  5.0000000E-01  9.8937603E+01  4.6067793E-02 -1.3250077E+04
 1.7100000E+01  5.0000000E-01  9.8921311E+01  3.9451781E-02 -1.3044200E+04
 1.7300000E+01  5.0000000E-01  9.8907369E+01  3.3767487E-02 -1.2838699E+04
 1.7500000E+01  5.0000000E-01  9.8895445E+01  2.8888244E-02 -1.2633540E+04
 1.7700000E+01  5.0000000E-01  9.8885250E+01  2.4703382E-02 -1.2428693E+04
 1.7900000E+01  5.0000000E-01  9.8876536E+01  2.1116550E-02 -1.2224131E+04
 1.8100000E+01  5.0000000E-01  9.8869092E+01  1.8044116E-02 -1.2019827E+04
 1.8300000E+01  5.0000000E-01  9.8862733E+01  1.5413667E-02 -1.1815760E+04
 1.8500000E+01  5.0000000E-01  9.8857303E+01  1.3162636E-02 -1.1611909E+04
 1.8700000E+01  5.0000000E-01  9.8852669E+01  1.1237059E-02 -1.1408254E+04
 1.8900000E+01  5.0000000E-01  9.8848713E+01  9.5904620E-03 -1.1204779E+04
 1.9100000E+01  5.0000000E-01  9.8845338E+01  8.1828681E-03 -1.1001467E+04
 1.9300000E+01  5.0000000E-01  9.8842460E+01  6.9799295E-03 -1.0798306E+04
 1.9500000E+01  5.0000000E-01  9.8840005E+01  5.9521597E-03 -1.0595282E+04
 1.9700000E+01  5.0000000E-01  9.8837913E+01  5.0742651E-03 -1.0392384E+04