VARIABLES = "X", "Y", "U", "V", "P"
ZONE I=   150, J=    40, K=1, F= POINT
 1.0000000E-01  1.0000000E-01  9.9998307E+01  1.6925291E-03 -2.0322600E+04
 3.0000000E-01  1.0000000E-01  9.9995911E+01  7.0358831E-04 -2.0327690E+04
 5.0000000E-01  1.0000000E-01  9.9994905E+01  3.0302446E-04 -2.0330896E+04
 7.0000000E-01  1.0000000E-01  9.9994488E+01  1.1412940E-04 -2.0333264E+04
 9.0000000E-01  1.0000000E-01  9.9994382E+01 -8.7301127E-06 -2.0335216E+04
 1.1000000E+00  1.0000000E-01  9.9994506E+01 -1.1517907E-04 -2.0336951E+04
 1.3000000E+00  1.0000000E-01  9.9994846E+01 -2.2513427E-04 -2.0338571E+04
 1.5000000E+00  1.0000000E-01  9.9995420E+01 -3.4868043E-04 -2.0340140E+04
 1.7000000E+00  1.0000000E-01  9.9996261E+01 -4.9253764E-04 -2.0341700E+04
 1.9000000E+00  1.0000000E-01  9.9997416E+01 -6.6242659E-04 -2.0343277E+04
 2.1000000E+00  1.0000000E-01  9.9998943E+01 -8.6406466E-04 -2.0344895E+04
 2.3000000E+00  1.0000000E-01  1.0000091E+02 -1.1036680E-03 -2.0346571E+04
 2.5000000E+00  1.0000000E-01  1.0000340E+02 -1.3882657E-03 -2.0348319E+04
 2.7000000E+00  1.0000000E-01  1.0000652E+02 -1.7259428E-03 -2.0350153E+04
 2.9000000E+00  1.0000000E-01  1.0001037E+02 -2.1260635E-03 -2.0352085E+04
 3.1000000E+00  1.0000000E-01  1.0001509E+02 -2.5994945E-03 -2.0354127E+04
 3.3000000E+00  1.0000000E-01  1.0002085E+02 -3.1588419E-03 -2.0356289E+04
 3.5000000E+00  1.0000000E-01  1.0002783E+02 -3.8187040E-03 -2.0358584E+04
 3.7000000E+00  1.0000000E-01  1.0003624E+02 -4.5959433E-03 -2.0361022E+04
 3.9000000E+00  1.0000000E-01  1.0004635E+02 -5.5099723E-03 -2.0363614E+04
 4.1000000E+00  1.0000000E-01  1.0005844E+02 -6.5830497E-03 -2.0366372E+04
 4.3000000E+00  1.0000000E-01  1.0007287E+02 -7.8405725E-03 -2.0369307E+04
 4.5000000E+00  1.0000000E-01  1.0009002E+02 -9.3113488E-03 -2.0372430E+04
 4.7000000E+00  1.0000000E-01  1.0011036E+02 -1.1027822E-02 -2.0375751E+04
 4.9000000E+00  1.0000000E-01  1.0013441E+02 -1.3026208E-02 -2.0379280E+04
 5.1000000E+00  1.0000000E-01  1.0016279E+02 -1.5346496E-02 -2.0383026E+04
 5.3000000E+00  1.0000000E-01  1.0019616E+02 -1.8032230E-02 -2.0386994E+04
 5.5000000E+00  1.0000000E-01  1.0023533E+02 -2.1129985E-02 -2.0391186E+04
 5.7000000E+00  1.0000000E-01  1.0028114E+02 -2.4688402E-02 -2.0395601E+04
 5.9000000E+00  1.0000000E-01  1.0033459E+02 -2.8756630E-02 -2.0400229E+04
 6.1000000E+00  1.0000000E-01  1.0039673E+02 -3.3381971E-02 -2.0405051E+04
 6.3000000E+00  1.0000000E-01  1.0046872E+02 -3.8606512E-02 -2.0410035E+04
 6.5000000E+00  1.0000000E-01  1.0055179E+02 -4.4462478E-02 -2.0415132E+04
 6.7000000E+00  1.0000000E-01  1.0064721E+02 -5.0966054E-02 -2.0420267E+04
 6.9000000E+00  1.0000000E-01  1.0075629E+02 -5.8109457E-02 -2.0425338E+04
 7.1000000E+00  1.0000000E-01  1.0088025E+02 -6.5851116E-02 -2.0430199E+04
 7.3000000E+00  1.0000000E-01  1.0102021E+02 -7.4104036E-02 -2.0434654E+04
 7.5000000E+00  1.0000000E-01  1.0117703E+02 -8.2722701E-02 -2.0438439E+04
 7.7000000E+00  1.0000000E-01  1.0135124E+02 -9.1489385E-02 -2.0441213E+04
 7.9000000E+00  1.0000000E-01  1.0154284E+02 -1.0010136E-01 -2.0442533E+04
 8.1000000E+00  1.0000000E-01  1.0175110E+02 -1.0816128E-01 -2.0441838E+04
 8.3000000E+00  1.0000000E-01  1.0197443E+02 -1.1517399E-01 -2.0438432E+04
 8.5000000E+00  1.0000000E-01  1.0221016E+02 -1.2055351E-01 -2.0431467E+04
 8.7000000E+00  1.0000000E-01  1.0245436E+02 -1.2364458E-01 -2.0419935E+04
 8.9000000E+00  1.0000000E-01  1.0270177E+02 -1.2376217E-01 -2.0402663E+04
 9.1000000E+00  1.0000000E-01  1.0294578E+02 -1.2025092E-01 -2.0378335E+04
 9.3000000E+00  1.0000000E-01  1.0317859E+02 -1.1256241E-01 -2.0345516E+04
 9.5000000E+00  1.0000000E-01  1.0339150E+02 -1.0034362E-01 -2.0302711E+04
 9.7000000E+00  1.0000000E-01  1.0357537E+02 -8.3523964E-02 -2.0248435E+04
 9.9000000E+00  1.0000000E-01  1.0372127E+02 -6.2383566E-02 -2.0181309E+04
 1.0100000E+01  1.0000000E-01  1.0382124E+02 -3.7584349E-02 -2.0100157E+04
 1.0300000E+01  1.0000000E-01  1.0386897E+02 -1.0149065E-02 -2.0004108E+04
 1.0500000E+01  1.0000000E-01  1.0386051E+02  1.8616957E-02 -1.9892676E+04
 1.0700000E+01  1.0000000E-01  1.0379464E+02  4.7253495E-02 -1.9765813E+04
 1.0900000E+01  1.0000000E-01  1.0367308E+02  7.4301979E-02 -1.9623921E+04
 1.1100000E+01  1.0000000E-01  1.0350032E+02  9.8462432E-02 -1.9467825E+04
 1.1300000E+01  1.0000000E-01  1.0328313E+02  1.1872215E-01 -1.9298704E+04
 1.1500000E+01  1.0000000E-01  1.0302997E+02  1.3443504E-01 -1.9118002E+04
 1.1700000E+01  1.0000000E-01  1.0275020E+02  1.4534315E-01 -1.8927317E+04
 1.1900000E+01  1.0000000E-01  1.0245331E+02  1.5154543E-01 -1.8728299E+04
 1.2100000E+01  1.0000000E-01  1.0214833E+02  1.5342823E-01 -1.8522560E+04
 1.2300000E+01  1.0000000E-01  1.0184333E+02  1.5157649E-01 -1.8311599E+04
 1.2500000E+01  1.0000000E-01  1.0154507E+02  1.4668323E-01 -1.8096756E+04
 1.2700000E+01  1.0000000E-01  1.0125892E+02  1.3947001E-01 -1.7879188E+04
 1.2900000E+01  1.0000000E-01  1.0098882E+02  1.3062583E-01 -1.7659859E+04
 1.3100000E+01  1.0000000E-01  1.0073743E+02  1.2076622E-01 -1.7439548E+04
 1.3300000E+01  1.0000000E-01  1.0050625E+02  1.1041098E-01 -1.7218864E+04
 1.3500000E+01  1.0000000E-01  1.0029586E+02  9.9976813E-02 -1.6998271E+04
 1.3700000E+01  1.0000000E-01  1.0010611E+02  8.9780699E-02 -1.6778106E+04
 1.3900000E+01  1.0000000E-01  9.9936275E+01  8.0049875E-02 -1.6558605E+04
 1.4100000E+01  1.0000000E-01  9.9785290E+01  7.0935222E-02 -1.6339921E+04
 1.4300000E+01  1.0000000E-01  9.9651829E+01  6.2525630E-02 -1.6122146E+04
 1.4500000E+01  1.0000000E-01  9.9534442E+01  5.4861770E-02 -1.5905322E+04
 1.4700000E+01  1.0000000E-01  9.9431632E+01  4.7948392E-02 -1.5689459E+04
 1.4900000E+01  1.0000000E-01  9.9341918E+01  4.1764720E-02 -1.5474539E+04
 1.5100000E+01  1.0000000E-01  9.9263881E+01  3.6272888E-02 -1.5260529E+04
 1.5300000E+01  1.0000000E-01  9.9196183E+01  3.1424523E-02 -1.5047384E+04
 1.5500000E+01  1.0000000E-01  9.9137593E+01  2.7165725E-02 -1.4835053E+04
 1.5700000E+01  1.0000000E-01  9.9086987E+01  2.3440687E-02 -1.4623480E+04
 1.5900000E+01  1.0000000E-01  9.9043352E+01  2.0194237E-02 -1.4412612E+04
 1.6100000E+01  1.0000000E-01  9.9005784E+01  1.7373530E-02 -1.4202393E+04
 1.6300000E+01  1.0000000E-01  9.8973481E+01  1.4929095E-02 -1.3992771E+04
 1.6500000E+01  1.0000000E-01  9.8945737E+01  1.2815423E-02 -1.3783696E+04
 1.6700000E+01  1.0000000E-01  9.8921930E+01  1.0991199E-02 -1.3575123E+04
 1.6900000E+01  1.0000000E-01  9.8901520E+01  9.4193180E-03 -1.3367006E+04
 1.7100000E+01  1.0000000E-01  9.8884034E+01  8.0667347E-03 -1.3159307E+04
 1.7300000E+01  1.0000000E-01  9.8869063E+01  6.9042240E-03 -1.2951989E+04
 1.7500000E+01  1.0000000E-01  9.8856252E+01  5.9060852E-03 -1.2745017E+04
 1.7700000E+01  1.0000000E-01  9.8845297E+01  5.0498217E-03 -1.2538361E+04
 1.7900000E+01  1.0000000E-01  9.8835931E+01  4.3158185E-03 -1.2331994E+04
 1.8100000E+01  1.0000000E-01  9.8827928E+01  3.6870281E-03 -1.2125888E+04
 1.8300000E+01  1.0000000E-01  9.8821092E+01  3.1486743E-03 -1.1920022E+04
 1.8500000E+01  1.0000000E-01  9.8815256E+01  2.6879790E-03 -1.1714374E+04
 1.8700000E+01  1.0000000E-01  9.8810274E+01  2.2939128E-03 -1.1508924E+04
 1.8900000E+01  1.0000000E-01  9.8806023E+01  1.9569713E-03 -1.1303657E+04
 1.9100000E+01  1.0000000E-01  9.8802397E+01  1.6689752E-03 -1.1098555E+04
 1.9300000E+01  1.0000000E-01  9.8799305E+01  1.4228935E-03 -1.0893604E+04
 1.9500000E+01  1.0000000E-01  9.8796670E+01  1.2126887E-03 -1.0688793E+04
 1.9700000E+01  1.0000000E-01  9.8794424E+01  1.0331803E-03 -1.0484107E+04
 1.9900000E+01  1.0000000E-01  9.8792511E+01  8.7992647E-04 -1.0279538E+04
 2.0100000E+01  1.0000000E-01  9.8790882E+01  7.4912109E-04 -1.0075075E+04
 2.0300000E+01  1.0000000E-01  9.8789495E+01  6.3750431E-04 -9.8707089E+03
 2.0500000E+01  1.0000000E-01  9.8788315E+01  5.4228534E-04 -9.6664321E+03
 2.0700000E+01  1.0000000E-01  9.8787312E+01  4.6107606E-04 -9.4622371E+03
 2.0900000E+01  1.0000000E-01  9.8786459E+01  3.9183351E-04 -9.2581171E+03
 2.1100000E+01  1.0000000E-01  9.8785734E+01  3.3281064E-04 -9.0540658E+03
 2.1300000E+01  1.0000000E-01  9.8785119E+01  2.8251355E-04 -8.8500778E+03
 2.1500000E+01  1.0000000E-01  9.8784597E+01  2.3966538E-04 -8.6461479E+03
 2.1700000E+01  1.0000000E-01  9.8784154E+01  2.0317470E-04 -8.4422713E+03
 2.1900000E+01  1.0000000E-01  9.8783779E+01  1.7210920E-04 -8.2384438E+03
 2.2100000E+01  1.0000000E-01  9.8783461E+01  1.4567216E-04 -8.0346614E+03
 2.2300000E+01  1.0000000E-01  9.8783192E+01  1.2318316E-04 -7.8309205E+03
 2.2500000E+01  1.0000000E-01  9.8782965E+01  1.0406111E-04 -7.6272178E+03
 2.2700000E+01  1.0000000E-01  9.8782773E+01  8.7809816E-05 -7.4235502E+03
 2.2900000E+01  1.0000000E-01  9.8782611E+01  7.4005462E-05 -7.2199150E+03
 2.3100000E+01  1.0000000E-01  9.8782475E+01  6.2286443E-05 -7.0163095E+03
 2.3300000E+01  1.0000000E-01  9.8782360E+01  5.2344026E-05 -6.8127315E+03
 2.3500000E+01  1.0000000E-01  9.8782264E+01  4.3914794E-05 -6.6091787E+03
 2.3700000E+01  1.0000000E-01  9.8782183E+01  3.6773938E-05 -6.4056492E+03
 2.3900000E+01  1.0000000E-01  9.8782116E+01  3.0729736E-05 -6.2021412E+03
 2.4100000E+01  1.0000000E-01  9.8782059E+01  2.5618690E-05 -5.9986528E+03
 2.4300000E+01  1.0000000E-01  9.8782012E+01  2.1301236E-05 -5.7951827E+03
 2.4500000E+01  1.0000000E-01  9.8781973E+01  1.7658430E-05 -5.5917293E+03
 2.4700000E+01  1.0000000E-01  9.8781941E+01  1.4589025E-05 -5.3882914E+03
 2.4900000E+01  1.0000000E-01  9.8781915E+01  1.2006618E-05 -5.1848676E+03
 2.5100000E+01  1.0000000E-01  9.8781893E+01  9.8376615E-06 -4.9814569E+03
 2.5300000E+01  1.0000000E-01  9.8781875E+01  8.0193915E-06 -4.7780582E+03
 2.5500000E+01  1.0000000E-01  9.8781860E+01  6.4984886E-06 -4.5746706E+03
 2.5700000E+01  1.0000000E-01  9.8781849E+01  5.2295071E-06 -4.3712932E+03
 2.5900000E+01  1.0000000E-01  9.8781839E+01  4.1738425E-06 -4.1679251E+03
 2.6100000E+01  1.0000000E-01  9.8781832E+01  3.2986353E-06 -3.9645656E+03
 2.6300000E+01  1.0000000E-01  9.8781826E+01  2.5759431E-06 -3.7612139E+03
 2.6500000E+01  1.0000000E-01  9.8781821E+01  1.9819756E-06 -3.5578695E+03
 2.6700000E+01  1.0000000E-01  9.8781818E+01  1.4966968E-06 -3.3545316E+03
 2.6900000E+01  1.0000000E-01  9.8781815E+01  1.1029825E-06 -3.1511998E+03
 2.7100000E+01  1.0000000E-01  9.8781813E+01  7.8630737E-07 -2.9478734E+03
 2.7300000E+01  1.0000000E-01  9.8781812E+01  5.3433385E-07 -2.7445520E+03
 2.7500000E+01  1.0000000E-01  9.8781811E+01  3.3662664E-07 -2.5412351E+03
 2.7700000E+01  1.0000000E-01  9.8781811E+01  1.8437079E-07 -2.3379223E+03
 2.7900000E+01  1.0000000E-01  9.8781810E+01  7.0057980E-08 -2.1346132E+03
 2.8100000E+01  1.0000000E-01  9.8781810E+01 -1.2715461E-08 -1.9313073E+03
 2.8300000E+01  1.0000000E-01  9.8781810E+01 -6.9310961E-08 -1.7280043E+03
 2.8500000E+01  1.0000000E-01  9.8781811E+01 -1.0434010E-07 -1.5247039E+03
 2.8700000E+01  1.0000000E-01  9.8781811E+01 -1.2175716E-07 -1.3214056E+03
 2.8900000E+01  1.0000000E-01  9.8781811E+01 -1.2487728E-07 -1.1181093E+03
 2.9100000E+01  1.0000000E-01  9.8781811E+01 -1.1662211E-07 -9.1481451E+02
 2.9300000E+01  1.0000000E-01  9.8781811E+01 -9.9475750E-08 -7.1152101E+02
 2.9500000E+01  1.0000000E-01  9.8781812E+01 -7.5679532E-08 -5.0822849E+02
 2.9700000E+01  1.0000000E-01  9.8781812E+01 -4.7216579E-08 -3.0493669E+02
 2.9900000E+01  1.0000000E-01  9.8781812E+01 -1.6094352E-08 -1.0164532E+02
 1.0000000E-01  3.0000000E-01  1.0000065E+02  2.7353862E-03 -2.0327509E+04
 3.0000000E-01  3.0000000E-01  1.0000130E+02  1.4050881E-03 -2.0329575E+04
 5.0000000E-01  3.0000000E-01  1.0000121E+02  6.9606981E-04 -2.0331733E+04
 7.0000000E-01  3.0000000E-01  1.0000108E+02  2.7634420E-04 -2.0333679E+04
 9.0000000E-01  3.0000000E-01  1.0000105E+02 -4.2604049E-05 -2.0335435E+04
 1.1000000E+00  3.0000000E-01  1.0000119E+02 -3.4204018E-04 -2.0337064E+04
 1.3000000E+00  3.0000000E-01  1.0000151E+02 -6.6182806E-04 -2.0338622E+04
 1.5000000E+00  3.0000000E-01  1.0000205E+02 -1.0257545E-03 -2.0340151E+04
 1.7000000E+00  3.0000000E-01  1.0000285E+02 -1.4516152E-03 -2.0341681E+04
 1.9000000E+00  3.0000000E-01  1.0000394E+02 -1.9555760E-03 -2.0343237E+04
 2.1000000E+00  3.0000000E-01  1.0000540E+02 -2.5542876E-03 -2.0344837E+04
 2.3000000E+00  3.0000000E-01  1.0000729E+02 -3.2660850E-03 -2.0346498E+04
 2.5000000E+00  3.0000000E-01  1.0000968E+02 -4.1118120E-03 -2.0348233E+04
 2.7000000E+00  3.0000000E-01  1.0001268E+02 -5.1155025E-03 -2.0350055E+04
 2.9000000E+00  3.0000000E-01  1.0001640E+02 -6.3050251E-03 -2.0351976E+04
 3.1000000E+00  3.0000000E-01  1.0002096E+02 -7.7127446E-03 -2.0354006E+04
 3.3000000E+00  3.0000000E-01  1.0002653E+02 -9.3762265E-03 -2.0356158E+04
 3.5000000E+00  3.0000000E-01  1.0003329E+02 -1.1338996E-02 -2.0358442E+04
 3.7000000E+00  3.0000000E-01  1.0004146E+02 -1.3651355E-02 -2.0360868E+04
 3.9000000E+00  3.0000000E-01  1.0005127E+02 -1.6371246E-02 -2.0363450E+04
 4.1000000E+00  3.0000000E-01  1.0006302E+02 -1.9565154E-02 -2.0366197E+04
 4.3000000E+00  3.0000000E-01  1.0007704E+02 -2.3309001E-02 -2.0369121E+04
 4.5000000E+00  3.0000000E-01  1.0009374E+02 -2.7688988E-02 -2.0372234E+04
 4.7000000E+00  3.0000000E-01  1.0011355E+02 -3.2802308E-02 -2.0375546E+04
 4.9000000E+00  3.0000000E-01  1.0013700E+02 -3.8757615E-02 -2.0379068E+04
 5.1000000E+00  3.0000000E-01  1.0016469E+02 -4.5675094E-02 -2.0382809E+04
 5.3000000E+00  3.0000000E-01  1.0019729E+02 -5.3685906E-02 -2.0386775E+04
 5.5000000E+00  3.0000000E-01  1.0023559E+02 -6.2930742E-02 -2.0390972E+04
 5.7000000E+00  3.0000000E-01  1.0028044E+02 -7.3557091E-02 -2.0395398E+04
 5.9000000E+00  3.0000000E-01  1.0033282E+02 -8.5714750E-02 -2.0400047E+04
 6.1000000E+00  3.0000000E-01  1.0039381E+02 -9.9549006E-02 -2.0404904E+04
 6.3000000E+00  3.0000000E-01  1.0046457E+02 -1.1519076E-01 -2.0409942E+04
 6.5000000E+00  3.0000000E-01  1.0054636E+02 -1.3274288E-01 -2.0415117E+04
 6.7000000E+00  3.0000000E-01  1.0064051E+02 -1.5226184E-01 -2.0420364E+04
 6.9000000E+00  3.0000000E-01  1.0074836E+02 -1.7373411E-01 -2.0425587E+04
 7.1000000E+00  3.0000000E-01  1.0087122E+02 -1.9704662E-01 -2.0430654E+04
 7.3000000E+00  3.0000000E-01  1.0101030E+02 -2.2195147E-01 -2.0435381E+04
 7.5000000E+00  3.0000000E-01  1.0116663E+02 -2.4802579E-01 -2.0439523E+04
 7.7000000E+00  3.0000000E-01  1.0134086E+02 -2.7462918E-01 -2.0442753E+04
 7.9000000E+00  3.0000000E-01  1.0153317E+02 -3.0086303E-01 -2.0444648E+04
 8.1000000E+00  3.0000000E-01  1.0174305E+02 -3.2553854E-01 -2.0444664E+04
 8.3000000E+00  3.0000000E-01  1.0196908E+02 -3.4716313E-01 -2.0442120E+04
 8.5000000E+00  3.0000000E-01  1.0220874E+02 -3.6395736E-01 -2.0436176E+04
 8.7000000E+00  3.0000000E-01  1.0245822E+02 -3.7391580E-01 -2.0425820E+04
 8.9000000E+00  3.0000000E-01  1.0271225E+02 -3.7492400E-01 -2.0409868E+04
 9.1000000E+00  3.0000000E-01  1.0296408E+02 -3.6493844E-01 -2.0386966E+04
 9.3000000E+00  3.0000000E-01  1.0320562E+02 -3.4222541E-01 -2.0355627E+04
 9.5000000E+00  3.0000000E-01  1.0342767E+02 -3.0563884E-01 -2.0314283E+04
 9.7000000E+00  3.0000000E-01  1.0362047E+02 -2.5489861E-01 -2.0261361E+04
 9.9000000E+00  3.0000000E-01  1.0377437E+02 -1.9081406E-01 -2.0195382E+04
 1.0100000E+01  3.0000000E-01  1.0388064E+02 -1.1539196E-01 -2.0115078E+04
 1.0300000E+01  3.0000000E-01  1.0393235E+02 -3.1778903E-02 -2.0019500E+04
 1.0500000E+01  3.0000000E-01  1.0392508E+02  5.5981364E-02 -1.9908112E+04
 1.0700000E+01  3.0000000E-01  1.0385749E+02  1.4335153E-01 -1.9780855E+04
 1.0900000E+01  3.0000000E-01  1.0373145E+02  2.2579884E-01 -1.9638159E+04
 1.1100000E+01  3.0000000E-01  1.0355188E+02  2.9929459E-01 -1.9480910E+04
 1.1300000E+01  3.0000000E-01  1.0332624E+02  3.6072128E-01 -1.9310377E+04
 1.1500000E+01  3.0000000E-01  1.0306371E+02  4.0811899E-01 -1.9128104E+04
 1.1700000E+01  3.0000000E-01  1.0277440E+02  4.4074519E-01 -1.8935790E+04
 1.1900000E+01  3.0000000E-01  1.0246847E+02  4.5896613E-01 -1.8735175E+04
 1.2100000E+01  3.0000000E-01  1.0215542E+02  4.6402971E-01 -1.8527940E+04
 1.2300000E+01  3.0000000E-01  1.0184362E+02  4.5778142E-01 -1.8315634E+04
 1.2500000E+01  3.0000000E-01  1.0153998E+02  4.4237973E-01 -1.8099624E+04
 1.2700000E+01  3.0000000E-01  1.0124985E+02  4.2005058E-01 -1.7881077E+04
 1.2900000E+01  3.0000000E-01  1.0097709E+02  3.9290191E-01 -1.7660952E+04
 1.3100000E+01  3.0000000E-01  1.0072417E+02  3.6280264E-01 -1.7440013E+04
 1.3300000E+01  3.0000000E-01  1.0049240E+02  3.3131949E-01 -1.7218850E+04
 1.3500000E+01  3.0000000E-01  1.0028216E+02  2.9969931E-01 -1.6997904E+04
 1.3700000E+01  3.0000000E-01  1.0009309E+02  2.6888302E-01 -1.6777490E+04
 1.3900000E+01  3.0000000E-01  9.9924332E+01  2.3953900E-01 -1.6557823E+04
 1.4100000E+01  3.0000000E-01  9.9774658E+01  2.1210552E-01 -1.6339039E+04
 1.4300000E+01  3.0000000E-01  9.9642638E+01  1.8683549E-01 -1.6121213E+04
 1.4500000E+01  3.0000000E-01  9.9526739E+01  1.6383863E-01 -1.5904375E+04
 1.4700000E+01  3.0000000E-01  9.9425402E+01  1.4311880E-01 -1.5688524E+04
 1.4900000E+01  3.0000000E-01  9.9337104E+01  1.2460522E-01 -1.5473635E+04
 1.5100000E+01  3.0000000E-01  9.9260396E+01  1.0817772E-01 -1.5259668E+04
 1.5300000E+01  3.0000000E-01  9.9193927E+01  9.3686186E-02 -1.5046572E+04
 1.5500000E+01  3.0000000E-01  9.9136456E+01  8.0965302E-02 -1.4834294E+04
 1.5700000E+01  3.0000000E-01  9.9086859E+01  6.9845102E-02 -1.4622776E+04
 1.5900000E+01  3.0000000E-01  9.9044125E+01  6.0158374E-02 -1.4411961E+04
 1.6100000E+01  3.0000000E-01  9.9007357E+01  5.1745524E-02 -1.4201794E+04
 1.6300000E+01  3.0000000E-01  9.8975759E+01  4.4457563E-02 -1.3992222E+04
 1.6500000E+01  3.0000000E-01  9.8948633E+01  3.8157712E-02 -1.3783194E+04
 1.6700000E+01  3.0000000E-01  9.8925366E+01  3.2722020E-02 -1.3574664E+04
 1.6900000E+01  3.0000000E-01  9.8905426E+01  2.8039312E-02 -1.3366588E+04
 1.7100000E+01  3.0000000E-01  9.8888348E+01  2.4010694E-02 -1.3158926E+04
 1.7300000E+01  3.0000000E-01  9.8873730E+01  2.0548782E-02 -1.2951641E+04
 1.7500000E+01  3.0000000E-01  9.8861225E+01  1.7576792E-02 -1.2744700E+04
 1.7700000E+01  3.0000000E-01  9.8850533E+01  1.5027557E-02 -1.2538073E+04
 1.7900000E+01  3.0000000E-01  9.8841394E+01  1.2842544E-02 -1.2331730E+04
 1.8100000E+01  3.0000000E-01  9.8833586E+01  1.0970905E-02 -1.2125648E+04
 1.8300000E+01  3.0000000E-01  9.8826918E+01  9.3685849E-03 -1.1919803E+04
 1.8500000E+01  3.0000000E-01  9.8821225E+01  7.9974963E-03 -1.1714174E+04
 1.8700000E+01  3.0000000E-01  9.8816367E+01  6.8247750E-03 -1.1508742E+04
 1.8900000E+01  3.0000000E-01  9.8812222E+01  5.8221063E-03 -1.1303491E+04
 1.9100000E+01  3.0000000E-01  9.8808686E+01  4.9651285E-03 -1.1098403E+04
 1.9300000E+01  3.0000000E-01  9.8805672E+01  4.2329039E-03 -1.0893466E+04
 1.9500000E+01  3.0000000E-01  9.8803103E+01  3.6074553E-03 -1.0688666E+04
 1.9700000E+01  3.0000000E-01  9.8800914E+01  3.0733595E-03 -1.0483991E+04
 1.9900000E+01  3.0000000E-01  9.8799049E+01  2.6173936E-03 -1.0279432E+04
 2.0100000E+01  3.0000000E-01  9.8797462E+01  2.2282282E-03 -1.0074977E+04
 2.0300000E+01  3.0000000E-01  9.8796111E+01  1.8961606E-03 -9.8706197E+03
 2.0500000E+01  3.0000000E-01  9.8794961E+01  1.6128851E-03 -9.6663503E+03
 2.0700000E+01  3.0000000E-01  9.8793984E+01  1.3712946E-03 -9.4621620E+03
 2.0900000E+01  3.0000000E-01  9.8793153E+01  1.1653095E-03 -9.2580482E+03
 2.1100000E+01  3.0000000E-01  9.8792447E+01  9.8973048E-04 -9.0540026E+03
 2.1300000E+01  3.0000000E-01  9.8791848E+01  8.4011258E-04 -8.8500197E+03
 2.1500000E+01  3.0000000E-01  9.8791340E+01  7.1265618E-04 -8.6460945E+03
 2.1700000E+01  3.0000000E-01  9.8790909E+01  6.0411414E-04 -8.4422222E+03
 2.1900000E+01  3.0000000E-01  9.8790543E+01  5.1171201E-04 -8.2383987E+03
 2.2100000E+01  3.0000000E-01  9.8790234E+01  4.3307953E-04 -8.0346199E+03
 2.2300000E+01  3.0000000E-01  9.8789972E+01  3.6619216E-04 -7.8308823E+03
 2.2500000E+01  3.0000000E-01  9.8789751E+01  3.0932090E-04 -7.6271826E+03
 2.2700000E+01  3.0000000E-01  9.8789565E+01  2.6098933E-04 -7.4235179E+03
 2.2900000E+01  3.0000000E-01  9.8789408E+01  2.1993691E-04 -7.2198852E+03
 2.3100000E+01  3.0000000E-01  9.8789275E+01  1.8508762E-04 -7.0162821E+03
 2.3300000E+01  3.0000000E-01  9.8789164E+01  1.5552305E-04 -6.8127062E+03
 2.3500000E+01  3.0000000E-01  9.8789070E+01  1.3045946E-04 -6.6091555E+03
 2.3700000E+01  3.0000000E-01  9.8788992E+01  1.0922815E-04 -6.4056278E+03
 2.3900000E+01  3.0000000E-01  9.8788927E+01  9.1258672E-05 -6.2021214E+03
 2.4100000E+01  3.0000000E-01  9.8788872E+01  7.6064471E-05 -5.9986346E+03
 2.4300000E+01  3.0000000E-01  9.8788826E+01  6.3230623E-05 -5.7951659E+03
 2.4500000E+01  3.0000000E-01  9.8788789E+01  5.2403386E-05 -5.5917139E+03
 2.4700000E+01  3.0000000E-01  9.8788758E+01  4.3281279E-05 -5.3882772E+03
 2.4900000E+01  3.0000000E-01  9.8788732E+01  3.5607373E-05 -5.1848545E+03
 2.5100000E+01  3.0000000E-01  9.8788711E+01  2.9162791E-05 -4.9814449E+03
 2.5300000E+01  3.0000000E-01  9.8788694E+01  2.3761099E-05 -4.7780472E+03
 2.5500000E+01  3.0000000E-01  9.8788680E+01  1.9243590E-05 -4.5746605E+03
 2.5700000E+01  3.0000000E-01  9.8788668E+01  1.5475185E-05 -4.3712838E+03
 2.5900000E+01  3.0000000E-01  9.8788659E+01  1.2340980E-05 -4.1679165E+03
 2.6100000E+01  3.0000000E-01  9.8788652E+01  9.7432491E-06 -3.9645577E+03
 2.6300000E+01  3.0000000E-01  9.8788647E+01  7.5989204E-06 -3.7612067E+03
 2.6500000E+01  3.0000000E-01  9.8788642E+01  5.8374073E-06 -3.5578629E+03
 2.6700000E+01  3.0000000E-01  9.8788639E+01  4.3988028E-06 -3.3545256E+03
 2.6900000E+01  3.0000000E-01  9.8788637E+01  3.2322336E-06 -3.1511943E+03
 2.7100000E+01  3.0000000E-01  9.8788635E+01  2.2945319E-06 -2.9478684E+03
 2.7300000E+01  3.0000000E-01  9.8788634E+01  1.5490834E-06 -2.7445475E+03
 2.7500000E+01  3.0000000E-01  9.8788633E+01  9.6485614E-07 -2.5412311E+03
 2.7700000E+01  3.0000000E-01  9.8788632E+01  5.1555554E-07 -2.3379187E+03
 2.7900000E+01  3.0000000E-01  9.8788632E+01  1.7888446E-07 -2.1346099E+03
 2.8100000E+01  3.0000000E-01  9.8788632E+01 -6.4071174E-08 -1.9313044E+03
 2.8300000E+01  3.0000000E-01  9.8788632E+01 -2.2935035E-07 -1.7280018E+03
 2.8500000E+01  3.0000000E-01  9.8788633E+01 -3.3060183E-07 -1.5247017E+03
 2.8700000E+01  3.0000000E-01  9.8788633E+01 -3.7946972E-07 -1.3214038E+03
 2.8900000E+01  3.0000000E-01  9.8788633E+01 -3.8591621E-07 -1.1181077E+03
 2.9100000E+01  3.0000000E-01  9.8788633E+01 -3.5854758E-07 -9.1481324E+02
 2.9300000E+01  3.0000000E-01  9.8788634E+01 -3.0485636E-07 -7.1152003E+02
 2.9500000E+01  3.0000000E-01  9.8788634E+01 -2.3147953E-07 -5.0822781E+02
 2.9700000E+01  3.0000000E-01  9.8788634E+01 -1.4440003E-07 -3.0493629E+02
 2.9900000E+01  3.0000000E-01  9.8788634E+01 -4.9213934E-08 -1.0164519E+02
 1.0000000E-01  5.0000000E-01  1.0000027E+02  1.8159812E-03 -2.0330351E+04
 3.0000000E-01  5.0000000E-01  1.0000061E+02  1.3298284E-03 -2.0331370E+04
 5.0000000E-01  5.0000000E-01  1.0000067E+02  7.9803047E-04 -2.0332782E+04
 7.0000000E-01  5.0000000E-01  1.0000065E+02  3.3776899E-04 -2.0334285E+04
 9.0000000E-01  5.0000000E-01  1.0000066E+02 -9.5993552E-05 -2.0335780E+04
 1.1000000E+00  5.0000000E-01  1.0000079E+02 -5.4855896E-04 -2.0337249E+04
 1.3000000E+00  5.0000000E-01  1.0000106E+02 -1.0543995E-03 -2.0338703E+04
 1.5000000E+00  5.0000000E-01  1.0000153E+02 -1.6409184E-03 -2.0340160E+04
 1.7000000E+00  5.0000000E-01  1.0000223E+02 -2.3326262E-03 -2.0341637E+04
 1.9000000E+00  5.0000000E-01  1.0000321E+02 -3.1540198E-03 -2.0343152E+04
 2.1000000E+00  5.0000000E-01  1.0000453E+02 -4.1314834E-03 -2.0344719E+04
 2.3000000E+00  5.0000000E-01  1.0000625E+02 -5.2946472E-03 -2.0346351E+04
 2.5000000E+00  5.0000000E-01  1.0000845E+02 -6.6774893E-03 -2.0348061E+04
 2.7000000E+00  5.0000000E-01  1.0001122E+02 -8.3193474E-03 -2.0349859E+04
 2.9000000E+00  5.0000000E-01  1.0001467E+02 -1.0265934E-02 -2.0351757E+04
 3.1000000E+00  5.0000000E-01  1.0001892E+02 -1.2570409E-02 -2.0353765E+04
 3.3000000E+00  5.0000000E-01  1.0002413E+02 -1.5294539E-02 -2.0355895E+04
 3.5000000E+00  5.0000000E-01  1.0003046E+02 -1.8509959E-02 -2.0358156E+04
 3.7000000E+00  5.0000000E-01  1.0003812E+02 -2.2299546E-02 -2.0360561E+04
 3.9000000E+00  5.0000000E-01  1.0004734E+02 -2.6758878E-02 -2.0363120E+04
 4.1000000E+00  5.0000000E-01  1.0005841E+02 -3.1997770E-02 -2.0365844E+04
 4.3000000E+00  5.0000000E-01  1.0007165E+02 -3.8141826E-02 -2.0368747E+04
 4.5000000E+00  5.0000000E-01  1.0008743E+02 -4.5333930E-02 -2.0371839E+04
 4.7000000E+00  5.0000000E-01  1.0010620E+02 -5.3735559E-02 -2.0375132E+04
 4.9000000E+00  5.0000000E-01  1.0012845E+02 -6.3527742E-02 -2.0378638E+04
 5.1000000E+00  5.0000000E-01  1.0015477E+02 -7.4911407E-02 -2.0382368E+04
 5.3000000E+00  5.0000000E-01  1.0018582E+02 -8.8106791E-02 -2.0386330E+04
 5.5000000E+00  5.0000000E-01  1.0022237E+02 -1.0335143E-01 -2.0390531E+04
 5.7000000E+00  5.0000000E-01  1.0026528E+02 -1.2089616E-01 -2.0394976E+04
 5.9000000E+00  5.0000000E-01  1.0031552E+02 -1.4099824E-01 -2.0399664E+04
 6.1000000E+00  5.0000000E-01  1.0037418E+02 -1.6391082E-01 -2.0404586E+04
 6.3000000E+00  5.0000000E-01  1.0044245E+02 -1.8986731E-01 -2.0409724E+04
 6.5000000E+00  5.0000000E-01  1.0052165E+02 -2.1905948E-01 -2.0415047E+04
 6.7000000E+00  5.0000000E-01  1.0061317E+02 -2.5160781E-01 -2.0420505E+04
 6.9000000E+00  5.0000000E-01  1.0071846E+02 -2.8752252E-01 -2.0426020E+04
 7.1000000E+00  5.0000000E-01  1.0083899E+02 -3.2665432E-01 -2.0431483E+04
 7.3000000E+00  5.0000000E-01  1.0097620E+02 -3.6863453E-01 -2.0436739E+04
 7.5000000E+00  5.0000000E-01  1.0113134E+02 -4.1280549E-01 -2.0441574E+04
 7.7000000E+00  5.0000000E-01  1.0130540E+02 -4.5814483E-01 -2.0445698E+04
 7.9000000E+00  5.0000000E-01  1.0149893E+02 -5.0318995E-01 -2.0448724E+04
 8.1000000E+00  5.0000000E-01  1.0171182E+02 -5.4597419E-01 -2.0450147E+04
 8.3000000E+00  5.0000000E-01  1.0194305E+02 -5.8399061E-01 -2.0449318E+04
 8.5000000E+00  5.0000000E-01  1.0219046E+02 -6.1420538E-01 -2.0445416E+04
 8.7000000E+00  5.0000000E-01  1.0245046E+02 -6.3314586E-01 -2.0437432E+04
 8.9000000E+00  5.0000000E-01  1.0271783E+02 -6.3708821E-01 -2.0424151E+04
 9.1000000E+00  5.0000000E-01  1.0298558E+02 -6.2236188E-01 -2.0404158E+04
 9.3000000E+00  5.0000000E-01  1.0324501E+02 -5.8576987E-01 -2.0375856E+04
 9.5000000E+00  5.0000000E-01  1.0348596E+02 -5.2509486E-01 -2.0337528E+04
 9.7000000E+00  5.0000000E-01  1.0369734E+02 -4.3962357E-01 -2.0287413E+04
 9.9000000E+00  5.0000000E-01  1.0386794E+02 -3.3058667E-01 -2.0223827E+04
 1.0100000E+01  5.0000000E-01  1.0398744E+02 -2.0139343E-01 -2.0145302E+04
 1.0300000E+01  5.0000000E-01  1.0404752E+02 -5.7556952E-02 -2.0050719E+04
 1.0500000E+01  5.0000000E-01  1.0404281E+02  9.3736846E-02 -1.9939439E+04
 1.0700000E+01  5.0000000E-01  1.0397162E+02  2.4437538E-01 -1.9811374E+04
 1.0900000E+01  5.0000000E-01  1.0383618E+02  3.8625210E-01 -1.9667012E+04
 1.1100000E+01  5.0000000E-01  1.0364239E+02  5.1220235E-01 -1.9507375E+04
 1.1300000E+01  5.0000000E-01  1.0339909E+02  6.1675734E-01 -1.9333920E+04
 1.1500000E+01  5.0000000E-01  1.0311711E+02  6.9658354E-01 -1.9148406E+04
 1.1700000E+01  5.0000000E-01  1.0280814E+02  7.5056235E-01 -1.8952746E+04
 1.1900000E+01  5.0000000E-01  1.0248367E+02  7.7955455E-01 -1.8748865E+04
 1.2100000E+01  5.0000000E-01  1.0215420E+02  7.8595356E-01 -1.8538588E+04
 1.2300000E+01  5.0000000E-01  1.0182871E+02  7.7315015E-01 -1.8323563E+04
 1.2500000E+01  5.0000000E-01  1.0151435E+02  7.4501380E-01 -1.8105209E+04
 1.2700000E+01  5.0000000E-01  1.0121643E+02  7.0546030E-01 -1.7884706E+04
 1.2900000E+01  5.0000000E-01  1.0093855E+02  6.5813761E-01 -1.7662999E+04
 1.3100000E+01  5.0000000E-01  1.0068280E+02  6.0623127E-01 -1.7440821E+04
 1.3300000E+01  5.0000000E-01  1.0045009E+02  5.5237270E-01 -1.7218719E+04
 1.3500000E+01  5.0000000E-01  1.0024035E+02  4.9862482E-01 -1.6997086E+04
 1.3700000E+01  5.0000000E-01  1.0005286E+02  4.4651931E-01 -1.6776192E+04
 1.3900000E+01  5.0000000E-01  9.9886400E+01  3.9712313E-01 -1.6556210E+04
 1.4100000E+01  5.0000000E-01  9.9739479E+01  3.5111731E-01 -1.6337239E+04
 1.4300000E+01  5.0000000E-01  9.9610445E+01  3.0887653E-01 -1.6119323E+04
 1.4500000E+01  5.0000000E-01  9.9497600E+01  2.7054229E-01 -1.5902466E+04
 1.4700000E+01  5.0000000E-01  9.9399266E+01  2.3608627E-01 -1.5686647E+04
 1.4900000E+01  5.0000000E-01  9.9313839E+01  2.0536256E-01 -1.5471824E+04
 1.5100000E+01  5.0000000E-01  9.9239818E+01  1.7814909E-01 -1.5257945E+04
 1.5300000E+01  5.0000000E-01  9.9175822E+01  1.5417939E-01 -1.5044951E+04
 1.5500000E+01  5.0000000E-01  9.9120599E+01  1.3316609E-01 -1.4832781E+04
 1.5700000E+01  5.0000000E-01  9.9073023E+01  1.1481768E-01 -1.4621373E+04
 1.5900000E+01  5.0000000E-01  9.9032093E+01  9.8850041E-02 -1.4410667E+04
 1.6100000E+01  5.0000000E-01  9.8996921E+01  8.4993840E-02 -1.4200604E+04
 1.6300000E+01  5.0000000E-01  9.8966729E+01  7.2998963E-02 -1.3991131E+04
 1.6500000E+01  5.0000000E-01  9.8940835E+01  6.2636737E-02 -1.3782196E+04
 1.6700000E+01  5.0000000E-01  9.8918644E+01  5.3700625E-02 -1.3573752E+04
 1.6900000E+01  5.0000000E-01  9.8899639E+01  4.6005876E-02 -1.3365756E+04
 1.7100000E+01  5.0000000E-01  9.8883373E+01  3.9388509E-02 -1.3158167E+04
 1.7300000E+01  5.0000000E-01  9.8869457E+01  3.3703901E-02 -1.2950950E+04
 1.7500000E+01  5.0000000E-01  9.8857559E+01  2.8825158E-02 -1.2744070E+04
 1.7700000E+01  5.0000000E-01  9.8847389E+01  2.4641424E-02 -1.2537499E+04
 1.7900000E+01  5.0000000E-01  9.8838700E+01  2.1056198E-02 -1.2331207E+04
 1.8100000E+01  5.0000000E-01  9.8831280E+01  1.7985723E-02 -1.2125172E+04
 1.8300000E+01  5.0000000E-01  9.8824944E+01  1.5357484E-02 -1.1919368E+04
 1.8500000E+01  5.0000000E-01  9.8819536E+01  1.3108835E-02 -1.1713778E+04
 1.8700000E+01  5.0000000E-01  9.8814923E+01  1.1185745E-02 -1.1508380E+04
 1.8900000E+01  5.0000000E-01  9.8810987E+01  9.5416879E-03 -1.1303160E+04
 1.9100000E+01  5.0000000E-01  9.8807631E+01  8.1366458E-03 -1.1098101E+04
 1.9300000E+01  5.0000000E-01  9.8804771E+01  6.9362385E-03 -1.0893190E+04
 1.9500000E+01  5.0000000E-01  9.8802333E+01  5.9109545E-03 -1.0688413E+04
 1.9700000E+01  5.0000000E-01  9.8800257E+01  5.0354814E-03 -1.0483760E+04