VARIABLES = "X", "Y", "U", "V", "P"
ZONE I=   150, J=    40, K=1, F= POINT
 1.0000000E-01  1.0000000E-01  9.9998766E+01  1.2341224E-03 -2.0122892E+04
 3.0000000E-01  1.0000000E-01  9.9997024E+01  5.0817271E-04 -2.0127984E+04
 5.0000000E-01  1.0000000E-01  9.9996299E+01  2.1648073E-04 -2.0131193E+04
 7.0000000E-01  1.0000000E-01  9.9996011E+01  7.0986170E-05 -2.0133567E+04
 9.0000000E-01  1.0000000E-01  9.9995973E+01 -3.2028498E-05 -2.0135526E+04
 1.1000000E+00  1.0000000E-01  9.9996133E+01 -1.2818917E-04 -2.0137269E+04
 1.3000000E+00  1.0000000E-01  9.9996493E+01 -2.3225185E-04 -2.0138901E+04
 1.5000000E+00  1.0000000E-01  9.9997078E+01 -3.5216629E-04 -2.0140483E+04
 1.7000000E+00  1.0000000E-01  9.9997923E+01 -4.9367265E-04 -2.0142058E+04
 1.9000000E+00  1.0000000E-01  9.9999079E+01 -6.6200173E-04 -2.0143653E+04
 2.1000000E+00  1.0000000E-01  1.0000060E+02 -8.6261032E-04 -2.0145291E+04
 2.3000000E+00  1.0000000E-01  1.0000257E+02 -1.1015712E-03 -2.0146990E+04
 2.5000000E+00  1.0000000E-01  1.0000506E+02 -1.3858345E-03 -2.0148764E+04
 2.7000000E+00  1.0000000E-01  1.0000816E+02 -1.7234457E-03 -2.0150628E+04
 2.9000000E+00  1.0000000E-01  1.0001201E+02 -2.1237545E-03 -2.0152593E+04
 3.1000000E+00  1.0000000E-01  1.0001673E+02 -2.5976313E-03 -2.0154672E+04
 3.3000000E+00  1.0000000E-01  1.0002249E+02 -3.1577005E-03 -2.0156876E+04
 3.5000000E+00  1.0000000E-01  1.0002946E+02 -3.8185910E-03 -2.0159216E+04
 3.7000000E+00  1.0000000E-01  1.0003788E+02 -4.5972079E-03 -2.0161706E+04
 3.9000000E+00  1.0000000E-01  1.0004799E+02 -5.5130184E-03 -2.0164356E+04
 4.1000000E+00  1.0000000E-01  1.0006009E+02 -6.5883482E-03 -2.0167178E+04
 4.3000000E+00  1.0000000E-01  1.0007453E+02 -7.8486758E-03 -2.0170185E+04
 4.5000000E+00  1.0000000E-01  1.0009170E+02 -9.3229056E-03 -2.0173389E+04
 4.7000000E+00  1.0000000E-01  1.0011207E+02 -1.1043594E-02 -2.0176800E+04
 4.9000000E+00  1.0000000E-01  1.0013616E+02 -1.3047091E-02 -2.0180430E+04
 5.1000000E+00  1.0000000E-01  1.0016458E+02 -1.5373538E-02 -2.0184289E+04
 5.3000000E+00  1.0000000E-01  1.0019802E+02 -1.8066656E-02 -2.0188383E+04
 5.5000000E+00  1.0000000E-01  1.0023726E+02 -2.1173222E-02 -2.0192718E+04
 5.7000000E+00  1.0000000E-01  1.0028317E+02 -2.4742106E-02 -2.0197292E+04
 5.9000000E+00  1.0000000E-01  1.0033674E+02 -2.8822715E-02 -2.0202100E+04
 6.1000000E+00  1.0000000E-01  1.0039902E+02 -3.3462635E-02 -2.0207123E+04
 6.3000000E+00  1.0000000E-01  1.0047119E+02 -3.8704265E-02 -2.0212335E+04
 6.5000000E+00  1.0000000E-01  1.0055448E+02 -4.4580164E-02 -2.0217687E+04
 6.7000000E+00  1.0000000E-01  1.0065016E+02 -5.1106870E-02 -2.0223112E+04
 6.9000000E+00  1.0000000E-01  1.0075955E+02 -5.8276955E-02 -2.0228507E+04
 7.1000000E+00  1.0000000E-01  1.0088387E+02 -6.6049195E-02 -2.0233735E+04
 7.3000000E+00  1.0000000E-01  1.0102426E+02 -7.4336904E-02 -2.0238603E+04
 7.5000000E+00  1.0000000E-01  1.0118159E+02 -8.2994817E-02 -2.0242855E+04
 7.7000000E+00  1.0000000E-01  1.0135639E+02 -9.1805352E-02 -2.0246154E+04
 7.9000000E+00  1.0000000E-01  1.0154866E+02 -1.0046577E-01 -2.0248064E+04
 8.1000000E+00  1.0000000E-01  1.0175771E+02 -1.0857853E-01 -2.0248032E+04
 8.3000000E+00  1.0000000E-01  1.0198193E+02 -1.1564798E-01 -2.0245370E+04
 8.5000000E+00  1.0000000E-01  1.0221867E+02 -1.2108737E-01 -2.0239236E+04
 8.7000000E+00  1.0000000E-01  1.0246400E+02 -1.2424025E-01 -2.0228628E+04
 8.9000000E+00  1.0000000E-01  1.0271266E+02 -1.2442010E-01 -2.0212382E+04
 9.1000000E+00  1.0000000E-01  1.0295805E+02 -1.2096962E-01 -2.0189183E+04
 9.3000000E+00  1.0000000E-01  1.0319235E+02 -1.1333822E-01 -2.0157602E+04
 9.5000000E+00  1.0000000E-01  1.0340686E+02 -1.0117051E-01 -2.0116141E+04
 9.7000000E+00  1.0000000E-01  1.0359243E+02 -8.4393547E-02 -2.0063314E+04
 9.9000000E+00  1.0000000E-01  1.0374010E+02 -6.3285314E-02 -1.9997736E+04
 1.0100000E+01  1.0000000E-01  1.0384190E+02 -3.8506009E-02 -1.9918221E+04
 1.0300000E+01  1.0000000E-01  1.0389148E+02 -1.1077257E-02 -1.9823887E+04
 1.0500000E+01  1.0000000E-01  1.0388486E+02  1.7696039E-02 -1.9714231E+04
 1.0700000E+01  1.0000000E-01  1.0382081E+02  4.6353346E-02 -1.9589191E+04
 1.0900000E+01  1.0000000E-01  1.0370102E+02  7.3435091E-02 -1.9449154E+04
 1.1100000E+01  1.0000000E-01  1.0352995E+02  9.7639707E-02 -1.9294927E+04
 1.1300000E+01  1.0000000E-01  1.0331436E+02  1.1795246E-01 -1.9127680E+04
 1.1500000E+01  1.0000000E-01  1.0306268E+02  1.3372495E-01 -1.8948843E+04
 1.1700000E+01  1.0000000E-01  1.0278426E+02  1.4469686E-01 -1.8760008E+04
 1.1900000E+01  1.0000000E-01  1.0248860E+02  1.5096483E-01 -1.8562822E+04
 1.2100000E+01  1.0000000E-01  1.0218472E+02  1.5291313E-01 -1.8358891E+04
 1.2300000E+01  1.0000000E-01  1.0188068E+02  1.5112499E-01 -1.8149716E+04
 1.2500000E+01  1.0000000E-01  1.0158326E+02  1.4629202E-01 -1.7936640E+04
 1.2700000E+01  1.0000000E-01  1.0129784E+02  1.3913481E-01 -1.7720821E+04
 1.2900000E+01  1.0000000E-01  1.0102836E+02  1.3034176E-01 -1.7503225E+04
 1.3100000E+01  1.0000000E-01  1.0077749E+02  1.2052809E-01 -1.7284636E+04
 1.3300000E+01  1.0000000E-01  1.0054675E+02  1.1021355E-01 -1.7065666E+04
 1.3500000E+01  1.0000000E-01  1.0033672E+02  9.9814997E-02 -1.6846782E+04
 1.3700000E+01  1.0000000E-01  1.0014725E+02  8.9649701E-02 -1.6628324E+04
 1.3900000E+01  1.0000000E-01  9.9977659E+01  7.9945278E-02 -1.6410530E+04
 1.4100000E+01  1.0000000E-01  9.9826861E+01  7.0853033E-02 -1.6193554E+04
 1.4300000E+01  1.0000000E-01  9.9693545E+01  6.2462294E-02 -1.5977492E+04
 1.4500000E+01  1.0000000E-01  9.9576269E+01  5.4814167E-02 -1.5762386E+04
 1.4700000E+01  1.0000000E-01  9.9473541E+01  4.7913811E-02 -1.5548245E+04
 1.4900000E+01  1.0000000E-01  9.9383886E+01  4.1740832E-02 -1.5335055E+04
 1.5100000E+01  1.0000000E-01  9.9305888E+01  3.6257704E-02 -1.5122781E+04
 1.5300000E+01  1.0000000E-01  9.9238214E+01  3.1416361E-02 -1.4911379E+04
 1.5500000E+01  1.0000000E-01  9.9179634E+01  2.7163169E-02 -1.4700798E+04
 1.5700000E+01  1.0000000E-01  9.9129028E+01  2.3442554E-02 -1.4490983E+04
 1.5900000E+01  1.0000000E-01  9.9085386E+01  2.0199544E-02 -1.4281879E+04
 1.6100000E+01  1.0000000E-01  9.9047805E+01  1.7381465E-02 -1.4073431E+04
 1.6300000E+01  1.0000000E-01  9.9015485E+01  1.4938990E-02 -1.3865587E+04
 1.6500000E+01  1.0000000E-01  9.8987719E+01  1.2826732E-02 -1.3658296E+04
 1.6700000E+01  1.0000000E-01  9.8963889E+01  1.1003480E-02 -1.3451512E+04
 1.6900000E+01  1.0000000E-01  9.8943453E+01  9.4322122E-03 -1.3245192E+04
 1.7100000E+01  1.0000000E-01  9.8925941E+01  8.0799563E-03 -1.3039294E+04
 1.7300000E+01  1.0000000E-01  9.8910943E+01  6.9175458E-03 -1.2833782E+04
 1.7500000E+01  1.0000000E-01  9.8898107E+01  5.9193289E-03 -1.2628622E+04
 1.7700000E+01  1.0000000E-01  9.8887124E+01  5.0628493E-03 -1.2423782E+04
 1.7900000E+01  1.0000000E-01  9.8877733E+01  4.3285249E-03 -1.2219234E+04
 1.8100000E+01  1.0000000E-01  9.8869705E+01  3.6993352E-03 -1.2014952E+04
 1.8300000E+01  1.0000000E-01  9.8862845E+01  3.1605260E-03 -1.1810914E+04
 1.8500000E+01  1.0000000E-01  9.8856985E+01  2.6993368E-03 -1.1607096E+04
 1.8700000E+01  1.0000000E-01  9.8851981E+01  2.3047524E-03 -1.1403481E+04
 1.8900000E+01  1.0000000E-01  9.8847709E+01  1.9672799E-03 -1.1200051E+04
 1.9100000E+01  1.0000000E-01  9.8844063E+01  1.6787489E-03 -1.0996789E+04
 1.9300000E+01  1.0000000E-01  9.8840952E+01  1.4321357E-03 -1.0793681E+04
 1.9500000E+01  1.0000000E-01  9.8838299E+01  1.2214081E-03 -1.0590715E+04
 1.9700000E+01  1.0000000E-01  9.8836036E+01  1.0413898E-03 -1.0387877E+04
 1.9900000E+01  1.0000000E-01  9.8834107E+01  8.8764207E-04 -1.0185157E+04
 2.0100000E+01  1.0000000E-01  9.8832463E+01  7.5636096E-04 -9.9825448E+03
 2.0300000E+01  1.0000000E-01  9.8831062E+01  6.4428811E-04 -9.7800319E+03
 2.0500000E+01  1.0000000E-01  9.8829869E+01  5.4863390E-04 -9.5776098E+03
 2.0700000E+01  1.0000000E-01  9.8828854E+01  4.6701054E-04 -9.3752711E+03
 2.0900000E+01  1.0000000E-01  9.8827989E+01  3.9737532E-04 -9.1730087E+03
 2.1100000E+01  1.0000000E-01  9.8827254E+01  3.3798093E-04 -8.9708165E+03
 2.1300000E+01  1.0000000E-01  9.8826629E+01  2.8733316E-04 -8.7686887E+03
 2.1500000E+01  1.0000000E-01  9.8826097E+01  2.4415469E-04 -8.5666200E+03
 2.1700000E+01  1.0000000E-01  9.8825646E+01  2.0735356E-04 -8.3646058E+03
 2.1900000E+01  1.0000000E-01  9.8825262E+01  1.7599659E-04 -8.1626416E+03
 2.2100000E+01  1.0000000E-01  9.8824937E+01  1.4928632E-04 -7.9607234E+03
 2.2300000E+01  1.0000000E-01  9.8824661E+01  1.2654145E-04 -7.7588476E+03
 2.2500000E+01  1.0000000E-01  9.8824428E+01  1.0718011E-04 -7.5570106E+03
 2.2700000E+01  1.0000000E-01  9.8824230E+01  9.0705130E-05 -7.3552096E+03
 2.2900000E+01  1.0000000E-01  9.8824062E+01  7.6691900E-05 -7.1534415E+03
 2.3100000E+01  1.0000000E-01  9.8823921E+01  6.4777929E-05 -6.9517039E+03
 2.3300000E+01  1.0000000E-01  9.8823801E+01  5.4653782E-05 -6.7499942E+03
 2.3500000E+01  1.0000000E-01  9.8823701E+01  4.6055238E-05 -6.5483103E+03
 2.3700000E+01  1.0000000E-01  9.8823616E+01  3.8756716E-05 -6.3466501E+03
 2.3900000E+01  1.0000000E-01  9.8823545E+01  3.2565645E-05 -6.1450118E+03
 2.4100000E+01  1.0000000E-01  9.8823485E+01  2.7317823E-05 -5.9433936E+03
 2.4300000E+01  1.0000000E-01  9.8823434E+01  2.2873106E-05 -5.7417940E+03
 2.4500000E+01  1.0000000E-01  9.8823392E+01  1.9112023E-05 -5.5402116E+03
 2.4700000E+01  1.0000000E-01  9.8823357E+01  1.5932485E-05 -5.3386448E+03
 2.4900000E+01  1.0000000E-01  9.8823328E+01  1.3247606E-05 -5.1370926E+03
 2.5100000E+01  1.0000000E-01  9.8823304E+01  1.0983185E-05 -4.9355537E+03
 2.5300000E+01  1.0000000E-01  9.8823284E+01  9.0760921E-06 -4.7340271E+03
 2.5500000E+01  1.0000000E-01  9.8823267E+01  7.4725618E-06 -4.5325118E+03
 2.5700000E+01  1.0000000E-01  9.8823254E+01  6.1266391E-06 -4.3310068E+03
 2.5900000E+01  1.0000000E-01  9.8823243E+01  4.9992249E-06 -4.1295114E+03
 2.6100000E+01  1.0000000E-01  9.8823234E+01  4.0571855E-06 -3.9280248E+03
 2.6300000E+01  1.0000000E-01  9.8823226E+01  3.2721490E-06 -3.7265461E+03
 2.6500000E+01  1.0000000E-01  9.8823220E+01  2.6199648E-06 -3.5250748E+03
 2.6700000E+01  1.0000000E-01  9.8823216E+01  2.0802930E-06 -3.3236103E+03
 2.6900000E+01  1.0000000E-01  9.8823212E+01  1.6356023E-06 -3.1221519E+03
 2.7100000E+01  1.0000000E-01  9.8823209E+01  1.2711029E-06 -2.9206991E+03
 2.7300000E+01  1.0000000E-01  9.8823207E+01  9.7427950E-07 -2.7192513E+03
 2.7500000E+01  1.0000000E-01  9.8823205E+01  7.3433279E-07 -2.5178082E+03
 2.7700000E+01  1.0000000E-01  9.8823204E+01  5.4216115E-07 -2.3163693E+03
 2.7900000E+01  1.0000000E-01  9.8823203E+01  3.8999461E-07 -2.1149340E+03
 2.8100000E+01  1.0000000E-01  9.8823202E+01  2.7125574E-07 -1.9135021E+03
 2.8300000E+01  1.0000000E-01  9.8823202E+01  1.8041429E-07 -1.7120732E+03
 2.8500000E+01  1.0000000E-01  9.8823202E+01  1.1272011E-07 -1.5106468E+03
 2.8700000E+01  1.0000000E-01  9.8823201E+01  6.3962553E-08 -1.3092228E+03
 2.8900000E+01  1.0000000E-01  9.8823201E+01  3.0652342E-08 -1.1078006E+03
 2.9100000E+01  1.0000000E-01  9.8823201E+01  9.6544890E-09 -9.0638006E+02
 2.9300000E+01  1.0000000E-01  9.8823201E+01 -1.6652962E-09 -7.0496079E+02
 2.9500000E+01  1.0000000E-01  9.8823201E+01 -5.7212713E-09 -5.0354254E+02
 2.9700000E+01  1.0000000E-01  9.8823201E+01 -4.7633560E-09 -3.0212502E+02
 2.9900000E+01  1.0000000E-01  9.8823201E+01 -1.1613465E-09 -1.0070797E+02
 1.0000000E-01  3.0000000E-01  1.0000045E+02  2.0148524E-03 -2.0127799E+04
 3.0000000E-01  3.0000000E-01  1.0000089E+02  1.0293293E-03 -2.0129868E+04
 5.0000000E-01  3.0000000E-01  1.0000081E+02  5.0275296E-04 -2.0132029E+04
 7.0000000E-01  3.0000000E-01  1.0000071E+02  1.7047645E-04 -2.0133980E+04
 9.0000000E-01  3.0000000E-01  1.0000072E+02 -1.0294251E-04 -2.0135743E+04
 1.1000000E+00  3.0000000E-01  1.0000088E+02 -3.7667261E-04 -2.0137381E+04
 1.3000000E+00  3.0000000E-01  1.0000122E+02 -6.8091596E-04 -2.0138950E+04
 1.5000000E+00  3.0000000E-01  1.0000177E+02 -1.0349249E-03 -2.0140492E+04
 1.7000000E+00  3.0000000E-01  1.0000256E+02 -1.4542201E-03 -2.0142037E+04
 1.9000000E+00  3.0000000E-01  1.0000366E+02 -1.9537586E-03 -2.0143610E+04
 2.1000000E+00  3.0000000E-01  1.0000511E+02 -2.5495214E-03 -2.0145231E+04
 2.3000000E+00  3.0000000E-01  1.0000699E+02 -3.2594652E-03 -2.0146915E+04
 2.5000000E+00  3.0000000E-01  1.0000938E+02 -4.1042236E-03 -2.0148675E+04
 2.7000000E+00  3.0000000E-01  1.0001238E+02 -5.1077242E-03 -2.0150527E+04
 2.9000000E+00  3.0000000E-01  1.0001609E+02 -6.2977996E-03 -2.0152480E+04
 3.1000000E+00  3.0000000E-01  1.0002065E+02 -7.7068296E-03 -2.0154547E+04
 3.3000000E+00  3.0000000E-01  1.0002622E+02 -9.3724356E-03 -2.0156739E+04
 3.5000000E+00  3.0000000E-01  1.0003298E+02 -1.1338235E-02 -2.0159069E+04
 3.7000000E+00  3.0000000E-01  1.0004114E+02 -1.3654657E-02 -2.0161546E+04
 3.9000000E+00  3.0000000E-01  1.0005095E+02 -1.6379808E-02 -2.0164185E+04
 4.1000000E+00  3.0000000E-01  1.0006271E+02 -1.9580372E-02 -2.0166995E+04
 4.3000000E+00  3.0000000E-01  1.0007675E+02 -2.3332513E-02 -2.0169991E+04
 4.5000000E+00  3.0000000E-01  1.0009346E+02 -2.7722718E-02 -2.0173183E+04
 4.7000000E+00  3.0000000E-01  1.0011330E+02 -3.2848519E-02 -2.0176584E+04
 4.9000000E+00  3.0000000E-01  1.0013678E+02 -3.8818966E-02 -2.0180206E+04
 5.1000000E+00  3.0000000E-01  1.0016452E+02 -4.5754700E-02 -2.0184058E+04
 5.3000000E+00  3.0000000E-01  1.0019718E+02 -5.3787411E-02 -2.0188150E+04
 5.5000000E+00  3.0000000E-01  1.0023554E+02 -6.3058392E-02 -2.0192486E+04
 5.7000000E+00  3.0000000E-01  1.0028049E+02 -7.3715818E-02 -2.0197070E+04
 5.9000000E+00  3.0000000E-01  1.0033298E+02 -8.5910256E-02 -2.0201896E+04
 6.1000000E+00  3.0000000E-01  1.0039411E+02 -9.9787848E-02 -2.0206952E+04
 6.3000000E+00  3.0000000E-01  1.0046505E+02 -1.1548044E-01 -2.0212213E+04
 6.5000000E+00  3.0000000E-01  1.0054705E+02 -1.3309189E-01 -2.0217640E+04
 6.7000000E+00  3.0000000E-01  1.0064145E+02 -1.5267976E-01 -2.0223171E+04
 6.9000000E+00  3.0000000E-01  1.0074959E+02 -1.7423159E-01 -2.0228715E+04
 7.1000000E+00  3.0000000E-01  1.0087281E+02 -1.9763538E-01 -2.0234143E+04
 7.3000000E+00  3.0000000E-01  1.0101231E+02 -2.2264419E-01 -2.0239278E+04
 7.5000000E+00  3.0000000E-01  1.0116913E+02 -2.4883594E-01 -2.0243880E+04
 7.7000000E+00  3.0000000E-01  1.0134394E+02 -2.7557072E-01 -2.0247629E+04
 7.9000000E+00  3.0000000E-01  1.0153691E+02 -3.0194995E-01 -2.0250107E+04
 8.1000000E+00  3.0000000E-01  1.0174756E+02 -3.2678428E-01 -2.0250779E+04
 8.3000000E+00  3.0000000E-01  1.0197447E+02 -3.4857976E-01 -2.0248971E+04
 8.5000000E+00  3.0000000E-01  1.0221514E+02 -3.6555462E-01 -2.0243851E+04
 8.7000000E+00  3.0000000E-01  1.0246573E+02 -3.7570000E-01 -2.0234415E+04
 8.9000000E+00  3.0000000E-01  1.0272101E+02 -3.7689683E-01 -2.0219483E+04
 9.1000000E+00  3.0000000E-01  1.0297422E+02 -3.6709585E-01 -2.0197708E+04
 9.3000000E+00  3.0000000E-01  1.0321726E+02 -3.4455664E-01 -2.0167607E+04
 9.5000000E+00  3.0000000E-01  1.0344093E+02 -3.0812590E-01 -2.0127610E+04
 9.7000000E+00  3.0000000E-01  1.0363544E+02 -2.5751621E-01 -2.0076142E+04
 9.9000000E+00  3.0000000E-01  1.0379113E+02 -1.9353028E-01 -2.0011720E+04
 1.0100000E+01  3.0000000E-01  1.0389925E+02 -1.1816952E-01 -1.9933065E+04
 1.0300000E+01  3.0000000E-01  1.0395283E+02 -3.4577010E-02 -1.9839215E+04
 1.0500000E+01  3.0000000E-01  1.0394744E+02  5.3204831E-02 -1.9729620E+04
 1.0700000E+01  3.0000000E-01  1.0388169E+02  1.4063775E-01 -1.9604202E+04
 1.0900000E+01  3.0000000E-01  1.0375745E+02  2.2318590E-01 -1.9463375E+04
 1.1100000E+01  3.0000000E-01  1.0357959E+02  2.9681569E-01 -1.9308009E+04
 1.1300000E+01  3.0000000E-01  1.0335556E+02  3.5840336E-01 -1.9139359E+04
 1.1500000E+01  3.0000000E-01  1.0309453E+02  4.0598195E-01 -1.8958959E+04
 1.1700000E+01  3.0000000E-01  1.0280659E+02  4.3880161E-01 -1.8768500E+04
 1.1900000E+01  3.0000000E-01  1.0250189E+02  4.5722156E-01 -1.8569717E+04
 1.2100000E+01  3.0000000E-01  1.0218994E+02  4.6248336E-01 -1.8364292E+04
 1.2300000E+01  3.0000000E-01  1.0187910E+02  4.5642723E-01 -1.8153771E+04
 1.2500000E+01  3.0000000E-01  1.0157630E+02  4.4120749E-01 -1.7939525E+04
 1.2700000E+01  3.0000000E-01  1.0128690E+02  4.1904716E-01 -1.7722724E+04
 1.2900000E+01  3.0000000E-01  1.0101476E+02  3.9205234E-01 -1.7504329E+04
 1.3100000E+01  3.0000000E-01  1.0076235E+02  3.6209111E-01 -1.7285108E+04
 1.3300000E+01  3.0000000E-01  1.0053102E+02  3.3073011E-01 -1.7065657E+04
 1.3500000E+01  3.0000000E-01  1.0032113E+02  2.9921668E-01 -1.6846417E+04
 1.3700000E+01  3.0000000E-01  1.0013235E+02  2.6849267E-01 -1.6627708E+04
 1.3900000E+01  3.0000000E-01  9.9963815E+01  2.3922762E-01 -1.6409745E+04
 1.4100000E+01  3.0000000E-01  9.9814323E+01  2.1186111E-01 -1.6192669E+04
 1.4300000E+01  3.0000000E-01  9.9682445E+01  1.8664737E-01 -1.5976554E+04
 1.4500000E+01  3.0000000E-01  9.9566653E+01  1.6369745E-01 -1.5761433E+04
 1.4700000E+01  3.0000000E-01  9.9465395E+01  1.4301644E-01 -1.5547304E+04
 1.4900000E+01  3.0000000E-01  9.9377153E+01  1.2453472E-01 -1.5334144E+04
 1.5100000E+01  3.0000000E-01  9.9300483E+01  1.0813313E-01 -1.5121913E+04
 1.5300000E+01  3.0000000E-01  9.9234035E+01  9.3662491E-02 -1.4910560E+04
 1.5500000E+01  3.0000000E-01  9.9176573E+01  8.0958278E-02 -1.4700032E+04
 1.5700000E+01  3.0000000E-01  9.9126975E+01  6.9851222E-02 -1.4490272E+04
 1.5900000E+01  3.0000000E-01  9.9084234E+01  6.0174708E-02 -1.4281222E+04
 1.6100000E+01  3.0000000E-01  9.9047451E+01  5.1769652E-02 -1.4072826E+04
 1.6300000E+01  3.0000000E-01  9.9015835E+01  4.4487498E-02 -1.3865032E+04
 1.6500000E+01  3.0000000E-01  9.8988687E+01  3.8191829E-02 -1.3657788E+04
 1.6700000E+01  3.0000000E-01  9.8965397E+01  3.2759001E-02 -1.3451048E+04
 1.6900000E+01  3.0000000E-01  9.8945431E+01  2.8078094E-02 -1.3244768E+04
 1.7100000E+01  3.0000000E-01  9.8928327E+01  2.4050425E-02 -1.3038908E+04
 1.7300000E+01  3.0000000E-01  9.8913683E+01  2.0588788E-02 -1.2833430E+04
 1.7500000E+01  3.0000000E-01  9.8901151E+01  1.7616544E-02 -1.2628300E+04
 1.7700000E+01  3.0000000E-01  9.8890432E+01  1.5066645E-02 -1.2423489E+04
 1.7900000E+01  3.0000000E-01  9.8881268E+01  1.2880656E-02 -1.2218967E+04
 1.8100000E+01  3.0000000E-01  9.8873435E+01  1.1007810E-02 -1.2014709E+04
 1.8300000E+01  3.0000000E-01  9.8866743E+01  9.4041158E-03 -1.1810692E+04
 1.8500000E+01  3.0000000E-01  9.8861027E+01  8.0315403E-03 -1.1606894E+04
 1.8700000E+01  3.0000000E-01  9.8856146E+01  6.8572608E-03 -1.1403296E+04
 1.8900000E+01  3.0000000E-01  9.8851980E+01  5.8529968E-03 -1.1199882E+04
 1.9100000E+01  3.0000000E-01  9.8848425E+01  4.9944131E-03 -1.0996635E+04
 1.9300000E+01  3.0000000E-01  9.8845391E+01  4.2605933E-03 -1.0793540E+04
 1.9500000E+01  3.0000000E-01  9.8842804E+01  3.6335762E-03 -1.0590585E+04
 1.9700000E+01  3.0000000E-01  9.8840598E+01  3.0979511E-03 -1.0387758E+04
 1.9900000E+01  3.0000000E-01  9.8838718E+01  2.6405042E-03 -1.0185048E+04
 2.0100000E+01  3.0000000E-01  9.8837116E+01  2.2499127E-03 -9.9824457E+03
 2.0300000E+01  3.0000000E-01  9.8835751E+01  1.9164784E-03 -9.7799411E+03
 2.0500000E+01  3.0000000E-01  9.8834588E+01  1.6318985E-03 -9.5775265E+03
 2.0700000E+01  3.0000000E-01  9.8833598E+01  1.3890673E-03 -9.3751946E+03
 2.0900000E+01  3.0000000E-01  9.8832756E+01  1.1819055E-03 -9.1729385E+03
 2.1100000E+01  3.0000000E-01  9.8832040E+01  1.0052136E-03 -8.9707520E+03
 2.1300000E+01  3.0000000E-01  9.8831431E+01  8.5454546E-04 -8.7686294E+03
 2.1500000E+01  3.0000000E-01  9.8830913E+01  7.2609988E-04 -8.5665656E+03
 2.1700000E+01  3.0000000E-01  9.8830473E+01  6.1662784E-04 -8.3645558E+03
 2.1900000E+01  3.0000000E-01  9.8830100E+01  5.2335269E-04 -8.1625956E+03
 2.2100000E+01  3.0000000E-01  9.8829783E+01  4.4390178E-04 -7.9606811E+03
 2.2300000E+01  3.0000000E-01  9.8829515E+01  3.7624807E-04 -7.7588086E+03
 2.2500000E+01  3.0000000E-01  9.8829287E+01  3.1866002E-04 -7.5569748E+03
 2.2700000E+01  3.0000000E-01  9.8829095E+01  2.6965860E-04 -7.3551766E+03
 2.2900000E+01  3.0000000E-01  9.8828932E+01  2.2798072E-04 -7.1534111E+03
 2.3100000E+01  3.0000000E-01  9.8828794E+01  1.9254784E-04 -6.9516759E+03
 2.3300000E+01  3.0000000E-01  9.8828678E+01  1.6243913E-04 -6.7499684E+03
 2.3500000E+01  3.0000000E-01  9.8828580E+01  1.3686847E-04 -6.5482865E+03
 2.3700000E+01  3.0000000E-01  9.8828498E+01  1.1516484E-04 -6.3466282E+03
 2.3900000E+01  3.0000000E-01  9.8828429E+01  9.6755541E-05 -6.1449916E+03
 2.4100000E+01  3.0000000E-01  9.8828370E+01  8.1151926E-05 -5.9433751E+03
 2.4300000E+01  3.0000000E-01  9.8828322E+01  6.7937078E-05 -5.7417770E+03
 2.4500000E+01  3.0000000E-01  9.8828281E+01  5.6755365E-05 -5.5401958E+03
 2.4700000E+01  3.0000000E-01  9.8828247E+01  4.7303433E-05 -5.3386303E+03
 2.4900000E+01  3.0000000E-01  9.8828219E+01  3.9322639E-05 -5.1370793E+03
 2.5100000E+01  3.0000000E-01  9.8828195E+01  3.2592467E-05 -4.9355414E+03
 2.5300000E+01  3.0000000E-01  9.8828176E+01  2.6924989E-05 -4.7340158E+03
 2.5500000E+01  3.0000000E-01  9.8828160E+01  2.2160075E-05 -4.5325014E+03
 2.5700000E+01  3.0000000E-01  9.8828147E+01  1.8161275E-05 -4.3309973E+03
 2.5900000E+01  3.0000000E-01  9.8828136E+01  1.4812390E-05 -4.1295027E+03
 2.6100000E+01  3.0000000E-01  9.8828127E+01  1.2014524E-05 -3.9280167E+03
 2.6300000E+01  3.0000000E-01  9.8828120E+01  9.6834680E-06 -3.7265388E+03
 2.6500000E+01  3.0000000E-01  9.8828115E+01  7.7475676E-06 -3.5250681E+03
 2.6700000E+01  3.0000000E-01  9.8828110E+01  6.1459168E-06 -3.3236041E+03
 2.6900000E+01  3.0000000E-01  9.8828107E+01  4.8266795E-06 -3.1221463E+03
 2.7100000E+01  3.0000000E-01  9.8828104E+01  3.7458088E-06 -2.9206940E+03
 2.7300000E+01  3.0000000E-01  9.8828102E+01  2.8658763E-06 -2.7192467E+03
 2.7500000E+01  3.0000000E-01  9.8828100E+01  2.1550334E-06 -2.5178041E+03
 2.7700000E+01  3.0000000E-01  9.8828099E+01  1.5862193E-06 -2.3163655E+03
 2.7900000E+01  3.0000000E-01  9.8828098E+01  1.1364226E-06 -2.1149307E+03
 2.8100000E+01  3.0000000E-01  9.8828098E+01  7.8607628E-07 -1.9134992E+03
 2.8300000E+01  3.0000000E-01  9.8828097E+01  5.1852512E-07 -1.7120706E+03
 2.8500000E+01  3.0000000E-01  9.8828097E+01  3.1953138E-07 -1.5106446E+03
 2.8700000E+01  3.0000000E-01  9.8828097E+01  1.7685448E-07 -1.3092208E+03
 2.8900000E+01  3.0000000E-01  9.8828097E+01  7.9965607E-08 -1.1077990E+03
 2.9100000E+01  3.0000000E-01  9.8828097E+01  1.9703687E-08 -9.0637876E+02
 2.9300000E+01  3.0000000E-01  9.8828097E+01 -1.1953538E-08 -7.0495981E+02
 2.9500000E+01  3.0000000E-01  9.8828097E+01 -2.2170657E-08 -5.0354186E+02
 2.9700000E+01  3.0000000E-01  9.8828097E+01 -1.7474080E-08 -3.0212463E+02
 2.9900000E+01  3.0000000E-01  9.8828097E+01 -4.5067571E-09 -1.0070784E+02
 1.0000000E-01  5.0000000E-01  1.0000017E+02  1.3885163E-03 -2.0130638E+04
 3.0000000E-01  5.0000000E-01  1.0000038E+02  1.0098797E-03 -2.0131658E+04
 5.0000000E-01  5.0000000E-01  1.0000039E+02  5.9405729E-04 -2.0133074E+04
 7.0000000E-01  5.0000000E-01  1.0000036E+02  2.1110579E-04 -2.0134582E+04
 9.0000000E-01  5.0000000E-01  1.0000038E+02 -1.7354861E-04 -2.0136084E+04
 1.1000000E+00  5.0000000E-01  1.0000050E+02 -5.9465013E-04 -2.0137562E+04
 1.3000000E+00  5.0000000E-01  1.0000078E+02 -1.0798265E-03 -2.0139026E+04
 1.5000000E+00  5.0000000E-01  1.0000125E+02 -1.6524152E-03 -2.0140496E+04
 1.7000000E+00  5.0000000E-01  1.0000195E+02 -2.3345487E-03 -2.0141988E+04
 1.9000000E+00  5.0000000E-01  1.0000293E+02 -3.1493237E-03 -2.0143521E+04
 2.1000000E+00  5.0000000E-01  1.0000425E+02 -4.1222939E-03 -2.0145107E+04
 2.3000000E+00  5.0000000E-01  1.0000596E+02 -5.2825988E-03 -2.0146762E+04
 2.5000000E+00  5.0000000E-01  1.0000816E+02 -6.6639385E-03 -2.0148497E+04
 2.7000000E+00  5.0000000E-01  1.0001092E+02 -8.3055128E-03 -2.0150323E+04
 2.9000000E+00  5.0000000E-01  1.0001436E+02 -1.0252995E-02 -2.0152253E+04
 3.1000000E+00  5.0000000E-01  1.0001861E+02 -1.2559579E-02 -2.0154297E+04
 3.3000000E+00  5.0000000E-01  1.0002381E+02 -1.5287132E-02 -2.0156466E+04
 3.5000000E+00  5.0000000E-01  1.0003013E+02 -1.8507445E-02 -2.0158772E+04
 3.7000000E+00  5.0000000E-01  1.0003779E+02 -2.2303603E-02 -2.0161227E+04
 3.9000000E+00  5.0000000E-01  1.0004702E+02 -2.6771455E-02 -2.0163841E+04
 4.1000000E+00  5.0000000E-01  1.0005809E+02 -3.2021144E-02 -2.0166628E+04
 4.3000000E+00  5.0000000E-01  1.0007134E+02 -3.8178671E-02 -2.0169600E+04
 4.5000000E+00  5.0000000E-01  1.0008714E+02 -4.5387392E-02 -2.0172770E+04
 4.7000000E+00  5.0000000E-01  1.0010593E+02 -5.3809342E-02 -2.0176149E+04
 4.9000000E+00  5.0000000E-01  1.0012821E+02 -6.3626198E-02 -2.0179752E+04
 5.1000000E+00  5.0000000E-01  1.0015457E+02 -7.5039642E-02 -2.0183590E+04
 5.3000000E+00  5.0000000E-01  1.0018567E+02 -8.8270784E-02 -2.0187673E+04
 5.5000000E+00  5.0000000E-01  1.0022229E+02 -1.0355816E-01 -2.0192011E+04
 5.7000000E+00  5.0000000E-01  1.0026529E+02 -1.2115374E-01 -2.0196609E+04
 5.9000000E+00  5.0000000E-01  1.0031563E+02 -1.4131606E-01 -2.0201468E+04
 6.1000000E+00  5.0000000E-01  1.0037442E+02 -1.6429971E-01 -2.0206583E+04
 6.3000000E+00  5.0000000E-01  1.0044286E+02 -1.9033966E-01 -2.0211939E+04
 6.5000000E+00  5.0000000E-01  1.0052225E+02 -2.1962940E-01 -2.0217506E+04
 6.7000000E+00  5.0000000E-01  1.0061400E+02 -2.5229120E-01 -2.0223239E+04
 6.9000000E+00  5.0000000E-01  1.0071958E+02 -2.8833715E-01 -2.0229066E+04
 7.1000000E+00  5.0000000E-01  1.0084045E+02 -3.2761981E-01 -2.0234880E+04
 7.3000000E+00  5.0000000E-01  1.0097806E+02 -3.6977220E-01 -2.0240532E+04
 7.5000000E+00  5.0000000E-01  1.0113367E+02 -4.1413813E-01 -2.0245815E+04
 7.7000000E+00  5.0000000E-01  1.0130829E+02 -4.5969618E-01 -2.0250443E+04
 7.9000000E+00  5.0000000E-01  1.0150247E+02 -5.0498403E-01 -2.0254039E+04
 8.1000000E+00  5.0000000E-01  1.0171611E+02 -5.4803426E-01 -2.0256104E+04
 8.3000000E+00  5.0000000E-01  1.0194821E+02 -5.8633789E-01 -2.0255996E+04
 8.5000000E+00  5.0000000E-01  1.0219661E+02 -6.1685739E-01 -2.0252905E+04
 8.7000000E+00  5.0000000E-01  1.0245773E+02 -6.3611447E-01 -2.0245828E+04
 8.9000000E+00  5.0000000E-01  1.0272634E+02 -6.4037759E-01 -2.0233558E+04
 9.1000000E+00  5.0000000E-01  1.0299548E+02 -6.2596638E-01 -2.0214686E+04
 9.3000000E+00  5.0000000E-01  1.0325643E+02 -5.8967230E-01 -2.0187621E+04
 9.5000000E+00  5.0000000E-01  1.0349902E+02 -5.2926535E-01 -2.0150645E+04
 9.7000000E+00  5.0000000E-01  1.0371215E+02 -4.4401941E-01 -2.0101996E+04
 9.9000000E+00  5.0000000E-01  1.0388459E+02 -3.3515334E-01 -2.0039986E+04
 1.0100000E+01  5.0000000E-01  1.0400599E+02 -2.0606686E-01 -1.9963134E+04
 1.0300000E+01  5.0000000E-01  1.0406800E+02 -6.2266805E-02 -1.9870309E+04
 1.0500000E+01  5.0000000E-01  1.0406522E+02  8.9063256E-02 -1.9760853E+04
 1.0700000E+01  5.0000000E-01  1.0399593E+02  2.3980904E-01 -1.9634659E+04
 1.0900000E+01  5.0000000E-01  1.0386234E+02  3.8185855E-01 -1.9492196E+04
 1.1100000E+01  5.0000000E-01  1.0367029E+02  5.0803848E-01 -1.9334468E+04
 1.1300000E+01  5.0000000E-01  1.0342864E+02  6.1286906E-01 -1.9162917E+04
 1.1500000E+01  5.0000000E-01  1.0314818E+02  6.9300439E-01 -1.8979291E+04
 1.1700000E+01  5.0000000E-01  1.0284059E+02  7.4731313E-01 -1.8785495E+04
 1.1900000E+01  5.0000000E-01  1.0251735E+02  7.7664383E-01 -1.8583451E+04
 1.2100000E+01  5.0000000E-01  1.0218898E+02  7.8337904E-01 -1.8374983E+04
 1.2300000E+01  5.0000000E-01  1.0186445E+02  7.7090052E-01 -1.8161740E+04
 1.2500000E+01  5.0000000E-01  1.0155091E+02  7.4307079E-01 -1.7945145E+04
 1.2700000E+01  5.0000000E-01  1.0125370E+02  7.0380086E-01 -1.7726381E+04
 1.2900000E+01  5.0000000E-01  1.0097641E+02  6.5673577E-01 -1.7506398E+04
 1.3100000E+01  5.0000000E-01  1.0072116E+02  6.0505986E-01 -1.7285932E+04
 1.3300000E+01  5.0000000E-01  1.0048885E+02  5.5140457E-01 -1.7065535E+04
 1.3500000E+01  5.0000000E-01  1.0027945E+02  4.9783388E-01 -1.6845603E+04
 1.3700000E+01  5.0000000E-01  1.0009223E+02  4.4588114E-01 -1.6626409E+04
 1.3900000E+01  5.0000000E-01  9.9925980E+01  3.9661539E-01 -1.6408128E+04
 1.4100000E+01  5.0000000E-01  9.9779226E+01  3.5071993E-01 -1.6190862E+04
 1.4300000E+01  5.0000000E-01  9.9650320E+01  3.0857173E-01 -1.5974654E+04
 1.4500000E+01  5.0000000E-01  9.9537571E+01  2.7031455E-01 -1.5759512E+04
 1.4700000E+01  5.0000000E-01  9.9439306E+01  2.3592215E-01 -1.5545414E+04
 1.4900000E+01  5.0000000E-01  9.9353926E+01  2.0525055E-01 -1.5332319E+04
 1.5100000E+01  5.0000000E-01  9.9279935E+01  1.7807940E-01 -1.5120175E+04
 1.5300000E+01  5.0000000E-01  9.9215955E+01  1.5414376E-01 -1.4908925E+04
 1.5500000E+01  5.0000000E-01  9.9160736E+01  1.3315758E-01 -1.4698505E+04
 1.5700000E+01  5.0000000E-01  9.9113156E+01  1.1483051E-01 -1.4488855E+04
 1.5900000E+01  5.0000000E-01  9.9072213E+01  9.8879418E-02 -1.4279913E+04
 1.6100000E+01  5.0000000E-01  9.9037025E+01  8.5035803E-02 -1.4071622E+04
 1.6300000E+01  5.0000000E-01  9.9006812E+01  7.3050263E-02 -1.3863928E+04
 1.6500000E+01  5.0000000E-01  9.8980894E+01  6.2694725E-02 -1.3656778E+04
 1.6700000E+01  5.0000000E-01  9.8958678E+01  5.3763150E-02 -1.3450125E+04
 1.6900000E+01  5.0000000E-01  9.8939646E+01  4.6071208E-02 -1.3243925E+04
 1.7100000E+01  5.0000000E-01  9.8923352E+01  3.9455264E-02 -1.3038139E+04
 1.7300000E+01  5.0000000E-01  9.8909410E+01  3.3770983E-02 -1.2832729E+04
 1.7500000E+01  5.0000000E-01  9.8897484E+01  2.8891710E-02 -1.2627662E+04
 1.7700000E+01  5.0000000E-01  9.8887287E+01  2.4706783E-02 -1.2422906E+04
 1.7900000E+01  5.0000000E-01  9.8878572E+01  2.1119860E-02 -1.2218436E+04
 1.8100000E+01  5.0000000E-01  9.8871126E+01  1.8047317E-02 -1.2014225E+04
 1.8300000E+01  5.0000000E-01  9.8864767E+01  1.5416745E-02 -1.1810250E+04
 1.8500000E+01  5.0000000E-01  9.8859336E+01  1.3165582E-02 -1.1606491E+04
 1.8700000E+01  5.0000000E-01  9.8854700E+01  1.1239869E-02 -1.1402929E+04
 1.8900000E+01  5.0000000E-01  9.8850743E+01  9.5931316E-03 -1.1199546E+04
 1.9100000E+01  5.0000000E-01  9.8847367E+01  8.1853974E-03 -1.0996328E+04
 1.9300000E+01  5.0000000E-01  9.8844488E+01  6.9823197E-03 -1.0793259E+04
 1.9500000E+01  5.0000000E-01  9.8842033E+01  5.9544135E-03 -1.0590329E+04
 1.9700000E+01  5.0000000E-01  9.8839939E+01  5.0763861E-03 -1.0387523E+04