VARIABLES = "X", "Y", "U", "V", "P"
ZONE I=   150, J=    40, K=1, F= POINT
 1.0000000E-01  1.0000000E-01  9.9998168E+01  1.8323262E-03 -2.0385218E+04
 3.0000000E-01  1.0000000E-01  9.9995571E+01  7.6447530E-04 -2.0390308E+04
 5.0000000E-01  1.0000000E-01  9.9994476E+01  3.2998804E-04 -2.0393512E+04
 7.0000000E-01  1.0000000E-01  9.9994019E+01  1.2756461E-04 -2.0395879E+04
 9.0000000E-01  1.0000000E-01  9.9993893E+01 -1.4649173E-06 -2.0397830E+04
 1.1000000E+00  1.0000000E-01  9.9994005E+01 -1.1110528E-04 -2.0399561E+04
 1.3000000E+00  1.0000000E-01  9.9994339E+01 -2.2288457E-04 -2.0401178E+04
 1.5000000E+00  1.0000000E-01  9.9994910E+01 -3.4755260E-04 -2.0402744E+04
 1.7000000E+00  1.0000000E-01  9.9995749E+01 -4.9213426E-04 -2.0404298E+04
 1.9000000E+00  1.0000000E-01  9.9996904E+01 -6.6250225E-04 -2.0405871E+04
 2.1000000E+00  1.0000000E-01  9.9998431E+01 -8.6445476E-04 -2.0407482E+04
 2.3000000E+00  1.0000000E-01  1.0000040E+02 -1.1042524E-03 -2.0409151E+04
 2.5000000E+00  1.0000000E-01  1.0000289E+02 -1.3889485E-03 -2.0410891E+04
 2.7000000E+00  1.0000000E-01  1.0000601E+02 -1.7266407E-03 -2.0412716E+04
 2.9000000E+00  1.0000000E-01  1.0000986E+02 -2.1266974E-03 -2.0414638E+04
 3.1000000E+00  1.0000000E-01  1.0001459E+02 -2.5999841E-03 -2.0416669E+04
 3.3000000E+00  1.0000000E-01  1.0002035E+02 -3.1591011E-03 -2.0418819E+04
 3.5000000E+00  1.0000000E-01  1.0002733E+02 -3.8186374E-03 -2.0421099E+04
 3.7000000E+00  1.0000000E-01  1.0003574E+02 -4.5954421E-03 -2.0423521E+04
 3.9000000E+00  1.0000000E-01  1.0004584E+02 -5.5089109E-03 -2.0426096E+04
 4.1000000E+00  1.0000000E-01  1.0005793E+02 -6.5812813E-03 -2.0428834E+04
 4.3000000E+00  1.0000000E-01  1.0007235E+02 -7.8379254E-03 -2.0431747E+04
 4.5000000E+00  1.0000000E-01  1.0008950E+02 -9.3076213E-03 -2.0434845E+04
 4.7000000E+00  1.0000000E-01  1.0010983E+02 -1.1022777E-02 -2.0438139E+04
 4.9000000E+00  1.0000000E-01  1.0013387E+02 -1.3019568E-02 -2.0441638E+04
 5.1000000E+00  1.0000000E-01  1.0016223E+02 -1.5337934E-02 -2.0445349E+04
 5.3000000E+00  1.0000000E-01  1.0019559E+02 -1.8021367E-02 -2.0449278E+04
 5.5000000E+00  1.0000000E-01  1.0023473E+02 -2.1116377E-02 -2.0453427E+04
 5.7000000E+00  1.0000000E-01  1.0028051E+02 -2.4671536E-02 -2.0457793E+04
 5.9000000E+00  1.0000000E-01  1.0033392E+02 -2.8735911E-02 -2.0462366E+04
 6.1000000E+00  1.0000000E-01  1.0039601E+02 -3.3356717E-02 -2.0467126E+04
 6.3000000E+00  1.0000000E-01  1.0046795E+02 -3.8575945E-02 -2.0472040E+04
 6.5000000E+00  1.0000000E-01  1.0055095E+02 -4.4425716E-02 -2.0477058E+04
 6.7000000E+00  1.0000000E-01  1.0064630E+02 -5.0922105E-02 -2.0482106E+04
 6.9000000E+00  1.0000000E-01  1.0075528E+02 -5.8057220E-02 -2.0487077E+04
 7.1000000E+00  1.0000000E-01  1.0087912E+02 -6.5789384E-02 -2.0491825E+04
 7.3000000E+00  1.0000000E-01  1.0101894E+02 -7.4031504E-02 -2.0496152E+04
 7.5000000E+00  1.0000000E-01  1.0117561E+02 -8.2637987E-02 -2.0499795E+04
 7.7000000E+00  1.0000000E-01  1.0134964E+02 -9.1391065E-02 -2.0502407E+04
 7.9000000E+00  1.0000000E-01  1.0154102E+02 -9.9988009E-02 -2.0503545E+04
 8.1000000E+00  1.0000000E-01  1.0174904E+02 -1.0803155E-01 -2.0502646E+04
 8.3000000E+00  1.0000000E-01  1.0197210E+02 -1.1502667E-01 -2.0499010E+04
 8.5000000E+00  1.0000000E-01  1.0220751E+02 -1.2038765E-01 -2.0491790E+04
 8.7000000E+00  1.0000000E-01  1.0245136E+02 -1.2345958E-01 -2.0479971E+04
 8.9000000E+00  1.0000000E-01  1.0269838E+02 -1.2355793E-01 -2.0462384E+04
 9.1000000E+00  1.0000000E-01  1.0294196E+02 -1.2002792E-01 -2.0437706E+04
 9.3000000E+00  1.0000000E-01  1.0317431E+02 -1.1232180E-01 -2.0404505E+04
 9.5000000E+00  1.0000000E-01  1.0338672E+02 -1.0008732E-01 -2.0361284E+04
 9.7000000E+00  1.0000000E-01  1.0357006E+02 -8.3254600E-02 -2.0306559E+04
 9.9000000E+00  1.0000000E-01  1.0371542E+02 -6.2104434E-02 -2.0238953E+04
 1.0100000E+01  1.0000000E-01  1.0381483E+02 -3.7299270E-02 -2.0157293E+04
 1.0300000E+01  1.0000000E-01  1.0386199E+02 -9.8621973E-03 -2.0060712E+04
 1.0500000E+01  1.0000000E-01  1.0385295E+02  1.8901339E-02 -1.9948728E+04
 1.0700000E+01  1.0000000E-01  1.0378652E+02  4.7531231E-02 -1.9821297E+04
 1.0900000E+01  1.0000000E-01  1.0366442E+02  7.4569237E-02 -1.9678827E+04
 1.1100000E+01  1.0000000E-01  1.0349113E+02  9.8715886E-02 -1.9522148E+04
 1.1300000E+01  1.0000000E-01  1.0327346E+02  1.1895911E-01 -1.9352443E+04
 1.1500000E+01  1.0000000E-01  1.0301984E+02  1.3465353E-01 -1.9171158E+04
 1.1700000E+01  1.0000000E-01  1.0273965E+02  1.4554192E-01 -1.8979894E+04
 1.1900000E+01  1.0000000E-01  1.0244238E+02  1.5172394E-01 -1.8780303E+04
 1.2100000E+01  1.0000000E-01  1.0213707E+02  1.5358656E-01 -1.8573997E+04
 1.2300000E+01  1.0000000E-01  1.0183177E+02  1.5171528E-01 -1.8362475E+04
 1.2500000E+01  1.0000000E-01  1.0153325E+02  1.4680349E-01 -1.8147077E+04
 1.2700000E+01  1.0000000E-01  1.0124687E+02  1.3957307E-01 -1.7928960E+04
 1.2900000E+01  1.0000000E-01  1.0097659E+02  1.3071319E-01 -1.7709086E+04
 1.3100000E+01  1.0000000E-01  1.0072504E+02  1.2083949E-01 -1.7488233E+04
 1.3300000E+01  1.0000000E-01  1.0049372E+02  1.1047177E-01 -1.7267010E+04
 1.3500000E+01  1.0000000E-01  1.0028323E+02  1.0002668E-01 -1.7045879E+04
 1.3700000E+01  1.0000000E-01  1.0009338E+02  8.9821106E-02 -1.6825177E+04
 1.3900000E+01  1.0000000E-01  9.9923475E+01  8.0082180E-02 -1.6605138E+04
 1.4100000E+01  1.0000000E-01  9.9772432E+01  7.0960649E-02 -1.6385916E+04
 1.4300000E+01  1.0000000E-01  9.9638926E+01  6.2545267E-02 -1.6167601E+04
 1.4500000E+01  1.0000000E-01  9.9521504E+01  5.4876573E-02 -1.5950237E+04
 1.4700000E+01  1.0000000E-01  9.9418668E+01  4.7959192E-02 -1.5733832E+04
 1.4900000E+01  1.0000000E-01  9.9328937E+01  4.1772232E-02 -1.5518367E+04
 1.5100000E+01  1.0000000E-01  9.9250887E+01  3.6277720E-02 -1.5303811E+04
 1.5300000E+01  1.0000000E-01  9.9183182E+01  3.1427191E-02 -1.5090117E+04
 1.5500000E+01  1.0000000E-01  9.9124588E+01  2.7166663E-02 -1.4877235E+04
 1.5700000E+01  1.0000000E-01  9.9073981E+01  2.3440259E-02 -1.4665109E+04
 1.5900000E+01  1.0000000E-01  9.9030348E+01  2.0192744E-02 -1.4453686E+04
 1.6100000E+01  1.0000000E-01  9.8992784E+01  1.7371221E-02 -1.4242909E+04
 1.6300000E+01  1.0000000E-01  9.8960487E+01  1.4926177E-02 -1.4032728E+04
 1.6500000E+01  1.0000000E-01  9.8932749E+01  1.2812062E-02 -1.3823092E+04
 1.6700000E+01  1.0000000E-01  9.8908949E+01  1.0987533E-02 -1.3613956E+04
 1.6900000E+01  1.0000000E-01  9.8888546E+01  9.4154560E-03 -1.3405275E+04
 1.7100000E+01  1.0000000E-01  9.8871068E+01  8.0627653E-03 -1.3197009E+04
 1.7300000E+01  1.0000000E-01  9.8856105E+01  6.9002174E-03 -1.2989123E+04
 1.7500000E+01  1.0000000E-01  9.8843303E+01  5.9020965E-03 -1.2781582E+04
 1.7700000E+01  1.0000000E-01  9.8832355E+01  5.0458937E-03 -1.2574355E+04
 1.7900000E+01  1.0000000E-01  9.8822997E+01  4.3119838E-03 -1.2367415E+04
 1.8100000E+01  1.0000000E-01  9.8815001E+01  3.6833110E-03 -1.2160736E+04
 1.8300000E+01  1.0000000E-01  9.8808173E+01  3.1450924E-03 -1.1954296E+04
 1.8500000E+01  1.0000000E-01  9.8802343E+01  2.6845445E-03 -1.1748072E+04
 1.8700000E+01  1.0000000E-01  9.8797368E+01  2.2906335E-03 -1.1542046E+04
 1.8900000E+01  1.0000000E-01  9.8793124E+01  1.9538514E-03 -1.1336201E+04
 1.9100000E+01  1.0000000E-01  9.8789504E+01  1.6660160E-03 -1.1130521E+04
 1.9300000E+01  1.0000000E-01  9.8786418E+01  1.4200944E-03 -1.0924992E+04
 1.9500000E+01  1.0000000E-01  9.8783788E+01  1.2100472E-03 -1.0719600E+04
 1.9700000E+01  1.0000000E-01  9.8781547E+01  1.0306927E-03 -1.0514334E+04
 1.9900000E+01  1.0000000E-01  9.8779639E+01  8.7758804E-04 -1.0309184E+04
 2.0100000E+01  1.0000000E-01  9.8778014E+01  7.4692635E-04 -1.0104139E+04
 2.0300000E+01  1.0000000E-01  9.8776632E+01  6.3544732E-04 -9.8991910E+03
 2.0500000E+01  1.0000000E-01  9.8775456E+01  5.4035999E-04 -9.6943316E+03
 2.0700000E+01  1.0000000E-01  9.8774456E+01  4.5927606E-04 -9.4895533E+03
 2.0900000E+01  1.0000000E-01  9.8773607E+01  3.9015244E-04 -9.2848497E+03
 2.1100000E+01  1.0000000E-01  9.8772885E+01  3.3124203E-04 -9.0802144E+03
 2.1300000E+01  1.0000000E-01  9.8772273E+01  2.8105118E-04 -8.8756420E+03
 2.1500000E+01  1.0000000E-01  9.8771754E+01  2.3830304E-04 -8.6711273E+03
 2.1700000E+01  1.0000000E-01  9.8771313E+01  2.0190651E-04 -8.4666656E+03
 2.1900000E+01  1.0000000E-01  9.8770941E+01  1.7092937E-04 -8.2622528E+03
 2.2100000E+01  1.0000000E-01  9.8770625E+01  1.4457523E-04 -8.0578847E+03
 2.2300000E+01  1.0000000E-01  9.8770358E+01  1.2216384E-04 -7.8535579E+03
 2.2500000E+01  1.0000000E-01  9.8770133E+01  1.0311434E-04 -7.6492691E+03
 2.2700000E+01  1.0000000E-01  9.8769943E+01  8.6930848E-05 -7.4450152E+03
 2.2900000E+01  1.0000000E-01  9.8769783E+01  7.3189889E-05 -7.2407934E+03
 2.3100000E+01  1.0000000E-01  9.8769648E+01  6.1530030E-05 -7.0366012E+03
 2.3300000E+01  1.0000000E-01  9.8769535E+01  5.1642788E-05 -6.8324363E+03
 2.3500000E+01  1.0000000E-01  9.8769440E+01  4.3264991E-05 -6.6282965E+03
 2.3700000E+01  1.0000000E-01  9.8769361E+01  3.6172001E-05 -6.4241799E+03
 2.3900000E+01  1.0000000E-01  9.8769294E+01  3.0172355E-05 -6.2200845E+03
 2.4100000E+01  1.0000000E-01  9.8769239E+01  2.5102766E-05 -6.0160087E+03
 2.4300000E+01  1.0000000E-01  9.8769193E+01  2.0823915E-05 -5.8119511E+03
 2.4500000E+01  1.0000000E-01  9.8769155E+01  1.7217134E-05 -5.6079100E+03
 2.4700000E+01  1.0000000E-01  9.8769124E+01  1.4181192E-05 -5.4038843E+03
 2.4900000E+01  1.0000000E-01  9.8769098E+01  1.1629878E-05 -5.1998727E+03
 2.5100000E+01  1.0000000E-01  9.8769077E+01  9.4898259E-06 -4.9958741E+03
 2.5300000E+01  1.0000000E-01  9.8769060E+01  7.6984692E-06 -4.7918875E+03
 2.5500000E+01  1.0000000E-01  9.8769046E+01  6.2026480E-06 -4.5879118E+03
 2.5700000E+01  1.0000000E-01  9.8769035E+01  4.9570616E-06 -4.3839462E+03
 2.5900000E+01  1.0000000E-01  9.8769026E+01  3.9231756E-06 -4.1799899E+03
 2.6100000E+01  1.0000000E-01  9.8769019E+01  3.0682579E-06 -3.9760422E+03
 2.6300000E+01  1.0000000E-01  9.8769013E+01  2.3644875E-06 -3.7721022E+03
 2.6500000E+01  1.0000000E-01  9.8769009E+01  1.7882494E-06 -3.5681694E+03
 2.6700000E+01  1.0000000E-01  9.8769006E+01  1.3195625E-06 -3.3642432E+03
 2.6900000E+01  1.0000000E-01  9.8769004E+01  9.4134864E-07 -3.1603229E+03
 2.7100000E+01  1.0000000E-01  9.8769002E+01  6.3919149E-07 -2.9564081E+03
 2.7300000E+01  1.0000000E-01  9.8769001E+01  4.0080159E-07 -2.7524982E+03
 2.7500000E+01  1.0000000E-01  9.8769001E+01  2.1594572E-07 -2.5485928E+03
 2.7700000E+01  1.0000000E-01  9.8769000E+01  7.5772781E-08 -2.3446915E+03
 2.7900000E+01  1.0000000E-01  9.8769000E+01 -2.7101331E-08 -2.1407937E+03
 2.8100000E+01  1.0000000E-01  9.8769000E+01 -9.8935287E-08 -1.9368992E+03
 2.8300000E+01  1.0000000E-01  9.8769001E+01 -1.4511037E-07 -1.7330076E+03
 2.8500000E+01  1.0000000E-01  9.8769001E+01 -1.7018319E-07 -1.5291185E+03
 2.8700000E+01  1.0000000E-01  9.8769001E+01 -1.7801546E-07 -1.3252315E+03
 2.8900000E+01  1.0000000E-01  9.8769002E+01 -1.7185086E-07 -1.1213465E+03
 2.9100000E+01  1.0000000E-01  9.8769002E+01 -1.5463199E-07 -9.1746299E+02
 2.9300000E+01  1.0000000E-01  9.8769002E+01 -1.2878121E-07 -7.1358077E+02
 2.9500000E+01  1.0000000E-01  9.8769002E+01 -9.6437986E-08 -5.0969953E+02
 2.9700000E+01  1.0000000E-01  9.8769003E+01 -5.9645700E-08 -3.0581900E+02
 2.9900000E+01  1.0000000E-01  9.8769003E+01 -2.0155977E-08 -1.0193889E+02
 1.0000000E-01  3.0000000E-01  1.0000071E+02  2.9550370E-03 -2.0390127E+04
 3.0000000E-01  3.0000000E-01  1.0000143E+02  1.5218350E-03 -2.0392194E+04
 5.0000000E-01  3.0000000E-01  1.0000134E+02  7.5618679E-04 -2.0394350E+04
 7.0000000E-01  3.0000000E-01  1.0000119E+02  3.0928740E-04 -2.0396295E+04
 9.0000000E-01  3.0000000E-01  1.0000115E+02 -2.3787372E-05 -2.0398049E+04
 1.1000000E+00  3.0000000E-01  1.0000128E+02 -3.3118690E-04 -2.0399675E+04
 1.3000000E+00  3.0000000E-01  1.0000160E+02 -6.5578243E-04 -2.0401230E+04
 1.5000000E+00  3.0000000E-01  1.0000214E+02 -1.0227704E-03 -2.0402755E+04
 1.7000000E+00  3.0000000E-01  1.0000293E+02 -1.4506530E-03 -2.0404281E+04
 1.9000000E+00  3.0000000E-01  1.0000403E+02 -1.9559711E-03 -2.0405831E+04
 2.1000000E+00  3.0000000E-01  1.0000549E+02 -2.5555828E-03 -2.0407425E+04
 2.3000000E+00  3.0000000E-01  1.0000738E+02 -3.2679402E-03 -2.0409079E+04
 2.5000000E+00  3.0000000E-01  1.0000977E+02 -4.1139522E-03 -2.0410807E+04
 2.7000000E+00  3.0000000E-01  1.0001277E+02 -5.1176854E-03 -2.0412620E+04
 2.9000000E+00  3.0000000E-01  1.0001649E+02 -6.3070193E-03 -2.0414531E+04
 3.1000000E+00  3.0000000E-01  1.0002106E+02 -7.7143143E-03 -2.0416550E+04
 3.3000000E+00  3.0000000E-01  1.0002663E+02 -9.3771181E-03 -2.0418689E+04
 3.5000000E+00  3.0000000E-01  1.0003339E+02 -1.1338927E-02 -2.0420959E+04
 3.7000000E+00  3.0000000E-01  1.0004155E+02 -1.3650003E-02 -2.0423370E+04
 3.9000000E+00  3.0000000E-01  1.0005136E+02 -1.6368240E-02 -2.0425934E+04
 4.1000000E+00  3.0000000E-01  1.0006311E+02 -1.9560060E-02 -2.0428661E+04
 4.3000000E+00  3.0000000E-01  1.0007713E+02 -2.3301308E-02 -2.0431564E+04
 4.5000000E+00  3.0000000E-01  1.0009382E+02 -2.7678097E-02 -2.0434652E+04
 4.7000000E+00  3.0000000E-01  1.0011363E+02 -3.2787516E-02 -2.0437937E+04
 4.9000000E+00  3.0000000E-01  1.0013707E+02 -3.8738096E-02 -2.0441429E+04
 5.1000000E+00  3.0000000E-01  1.0016474E+02 -4.5649880E-02 -2.0445136E+04
 5.3000000E+00  3.0000000E-01  1.0019732E+02 -5.3653866E-02 -2.0449064E+04
 5.5000000E+00  3.0000000E-01  1.0023559E+02 -6.2890557E-02 -2.0453218E+04
 5.7000000E+00  3.0000000E-01  1.0028042E+02 -7.3507230E-02 -2.0457596E+04
 5.9000000E+00  3.0000000E-01  1.0033276E+02 -8.5653445E-02 -2.0462191E+04
 6.1000000E+00  3.0000000E-01  1.0039370E+02 -9.9474220E-02 -2.0466987E+04
 6.3000000E+00  3.0000000E-01  1.0046441E+02 -1.1510017E-01 -2.0471956E+04
 6.5000000E+00  3.0000000E-01  1.0054614E+02 -1.3263385E-01 -2.0477054E+04
 6.7000000E+00  3.0000000E-01  1.0064021E+02 -1.5213140E-01 -2.0482213E+04
 6.9000000E+00  3.0000000E-01  1.0074796E+02 -1.7357895E-01 -2.0487338E+04
 7.1000000E+00  3.0000000E-01  1.0087071E+02 -1.9686312E-01 -2.0492294E+04
 7.3000000E+00  3.0000000E-01  1.0100967E+02 -2.2173569E-01 -2.0496896E+04
 7.5000000E+00  3.0000000E-01  1.0116584E+02 -2.4777356E-01 -2.0500897E+04
 7.7000000E+00  3.0000000E-01  1.0133989E+02 -2.7433619E-01 -2.0503967E+04
 7.9000000E+00  3.0000000E-01  1.0153200E+02 -3.0052494E-01 -2.0505682E+04
 8.1000000E+00  3.0000000E-01  1.0174163E+02 -3.2515120E-01 -2.0505496E+04
 8.3000000E+00  3.0000000E-01  1.0196739E+02 -3.4672283E-01 -2.0502725E+04
 8.5000000E+00  3.0000000E-01  1.0220675E+02 -3.6346110E-01 -2.0496527E+04
 8.7000000E+00  3.0000000E-01  1.0245587E+02 -3.7336167E-01 -2.0485888E+04
 8.9000000E+00  3.0000000E-01  1.0270951E+02 -3.7431154E-01 -2.0469620E+04
 9.1000000E+00  3.0000000E-01  1.0296092E+02 -3.6426899E-01 -2.0446370E+04
 9.3000000E+00  3.0000000E-01  1.0320199E+02 -3.4150238E-01 -2.0414649E+04
 9.5000000E+00  3.0000000E-01  1.0342354E+02 -3.0486792E-01 -2.0372888E+04
 9.7000000E+00  3.0000000E-01  1.0361582E+02 -2.5408774E-01 -2.0319515E+04
 9.9000000E+00  3.0000000E-01  1.0376916E+02 -1.8997324E-01 -2.0253054E+04
 1.0100000E+01  3.0000000E-01  1.0387486E+02 -1.1453282E-01 -2.0172238E+04
 1.0300000E+01  3.0000000E-01  1.0392598E+02 -3.0914112E-02 -2.0076123E+04
 1.0500000E+01  3.0000000E-01  1.0391814E+02  5.6838756E-02 -1.9964179E+04
 1.0700000E+01  3.0000000E-01  1.0384997E+02  1.4418883E-01 -1.9836350E+04
 1.0900000E+01  3.0000000E-01  1.0372338E+02  2.2660437E-01 -1.9693071E+04
 1.1100000E+01  3.0000000E-01  1.0354329E+02  3.0005822E-01 -1.9535235E+04
 1.1300000E+01  3.0000000E-01  1.0331715E+02  3.6143483E-01 -1.9364114E+04
 1.1500000E+01  3.0000000E-01  1.0305416E+02  4.0877649E-01 -1.9181256E+04
 1.1700000E+01  3.0000000E-01  1.0276443E+02  4.4134291E-01 -1.8988361E+04
 1.1900000E+01  3.0000000E-01  1.0245812E+02  4.5950248E-01 -1.8787172E+04
 1.2100000E+01  3.0000000E-01  1.0214473E+02  4.6450503E-01 -1.8579370E+04
 1.2300000E+01  3.0000000E-01  1.0183263E+02  4.5819766E-01 -1.8366504E+04
 1.2500000E+01  3.0000000E-01  1.0152873E+02  4.4274007E-01 -1.8149941E+04
 1.2700000E+01  3.0000000E-01  1.0123839E+02  4.2035910E-01 -1.7930845E+04
 1.2900000E+01  3.0000000E-01  1.0096544E+02  3.9316321E-01 -1.7710176E+04
 1.3100000E+01  3.0000000E-01  1.0071236E+02  3.6302158E-01 -1.7488695E+04
 1.3300000E+01  3.0000000E-01  1.0048046E+02  3.3150097E-01 -1.7266994E+04
 1.3500000E+01  3.0000000E-01  1.0027010E+02  2.9984803E-01 -1.7045511E+04
 1.3700000E+01  3.0000000E-01  1.0008095E+02  2.6900344E-01 -1.6824560E+04
 1.3900000E+01  3.0000000E-01  9.9912116E+01  2.3963518E-01 -1.6604357E+04
 1.4100000E+01  3.0000000E-01  9.9762385E+01  2.1218115E-01 -1.6385035E+04
 1.4300000E+01  3.0000000E-01  9.9630322E+01  1.8689383E-01 -1.6166670E+04
 1.4500000E+01  3.0000000E-01  9.9514390E+01  1.6388255E-01 -1.5949292E+04
 1.4700000E+01  3.0000000E-01  9.9413028E+01  1.4315078E-01 -1.5732899E+04
 1.4900000E+01  3.0000000E-01  9.9324712E+01  1.2462740E-01 -1.5517466E+04
 1.5100000E+01  3.0000000E-01  9.9247993E+01  1.0819192E-01 -1.5302952E+04
 1.5300000E+01  3.0000000E-01  9.9181517E+01  9.3693948E-02 -1.5089307E+04
 1.5500000E+01  3.0000000E-01  9.9124043E+01  8.0967920E-02 -1.4876478E+04
 1.5700000E+01  3.0000000E-01  9.9074445E+01  6.9843659E-02 -1.4664407E+04
 1.5900000E+01  3.0000000E-01  9.9031714E+01  6.0153769E-02 -1.4453037E+04
 1.6100000E+01  3.0000000E-01  9.8994949E+01  5.1738500E-02 -1.4242313E+04
 1.6300000E+01  3.0000000E-01  9.8963357E+01  4.4448731E-02 -1.4032181E+04
 1.6500000E+01  3.0000000E-01  9.8936237E+01  3.8147572E-02 -1.3822592E+04
 1.6700000E+01  3.0000000E-01  9.8912978E+01  3.2710978E-02 -1.3613499E+04
 1.6900000E+01  3.0000000E-01  9.8893045E+01  2.8027696E-02 -1.3404858E+04
 1.7100000E+01  3.0000000E-01  9.8875975E+01  2.3998765E-02 -1.3196629E+04
 1.7300000E+01  3.0000000E-01  9.8861365E+01  2.0536749E-02 -1.2988776E+04
 1.7500000E+01  3.0000000E-01  9.8848869E+01  1.7564820E-02 -1.2781266E+04
 1.7700000E+01  3.0000000E-01  9.8838184E+01  1.5015772E-02 -1.2574068E+04
 1.7900000E+01  3.0000000E-01  9.8829053E+01  1.2831042E-02 -1.2367153E+04
 1.8100000E+01  3.0000000E-01  9.8821253E+01  1.0959759E-02 -1.2160498E+04
 1.8300000E+01  3.0000000E-01  9.8814592E+01  9.3578464E-03 -1.1954078E+04
 1.8500000E+01  3.0000000E-01  9.8808906E+01  7.9872016E-03 -1.1747873E+04
 1.8700000E+01  3.0000000E-01  9.8804054E+01  6.8149468E-03 -1.1541865E+04
 1.8900000E+01  3.0000000E-01  9.8799916E+01  5.8127569E-03 -1.1336036E+04
 1.9100000E+01  3.0000000E-01  9.8796386E+01  4.9562619E-03 -1.1130370E+04
 1.9300000E+01  3.0000000E-01  9.8793378E+01  4.2245177E-03 -1.0924854E+04
 1.9500000E+01  3.0000000E-01  9.8790814E+01  3.5995419E-03 -1.0719474E+04
 1.9700000E+01  3.0000000E-01  9.8788630E+01  3.0659075E-03 -1.0514219E+04
 1.9900000E+01  3.0000000E-01  9.8786770E+01  2.6103889E-03 -1.0309078E+04
 2.0100000E+01  3.0000000E-01  9.8785187E+01  2.2216544E-03 -1.0104042E+04
 2.0300000E+01  3.0000000E-01  9.8783840E+01  1.8900000E-03 -9.8991023E+03
 2.0500000E+01  3.0000000E-01  9.8782695E+01  1.6071191E-03 -9.6942502E+03
 2.0700000E+01  3.0000000E-01  9.8781721E+01  1.3659040E-03 -9.4894787E+03
 2.0900000E+01  3.0000000E-01  9.8780894E+01  1.1602751E-03 -9.2847811E+03
 2.1100000E+01  3.0000000E-01  9.8780191E+01  9.8503314E-04 -9.0801515E+03
 2.1300000E+01  3.0000000E-01  9.8779595E+01  8.3573339E-04 -8.8755842E+03
 2.1500000E+01  3.0000000E-01  9.8779089E+01  7.0857672E-04 -8.6710742E+03
 2.1700000E+01  3.0000000E-01  9.8778661E+01  6.0031656E-04 -8.4666168E+03
 2.1900000E+01  3.0000000E-01  9.8778298E+01  5.0817908E-04 -8.2622079E+03
 2.2100000E+01  3.0000000E-01  9.8777991E+01  4.2979478E-04 -8.0578434E+03
 2.2300000E+01  3.0000000E-01  9.8777732E+01  3.6313981E-04 -7.8535200E+03
 2.2500000E+01  3.0000000E-01  9.8777513E+01  3.0648594E-04 -7.6492341E+03
 2.2700000E+01  3.0000000E-01  9.8777328E+01  2.5835755E-04 -7.4449830E+03
 2.2900000E+01  3.0000000E-01  9.8777172E+01  2.1749489E-04 -7.2407638E+03
 2.3100000E+01  3.0000000E-01  9.8777041E+01  1.8282267E-04 -7.0365740E+03
 2.3300000E+01  3.0000000E-01  9.8776932E+01  1.5342323E-04 -6.8324112E+03
 2.3500000E+01  3.0000000E-01  9.8776839E+01  1.2851356E-04 -6.6282734E+03
 2.3700000E+01  3.0000000E-01  9.8776762E+01  1.0742560E-04 -6.4241586E+03
 2.3900000E+01  3.0000000E-01  9.8776698E+01  8.9589602E-05 -6.2200649E+03
 2.4100000E+01  3.0000000E-01  9.8776644E+01  7.4519656E-05 -6.0159907E+03
 2.4300000E+01  3.0000000E-01  9.8776600E+01  6.1801461E-05 -5.8119344E+03
 2.4500000E+01  3.0000000E-01  9.8776563E+01  5.1081871E-05 -5.6078947E+03
 2.4700000E+01  3.0000000E-01  9.8776533E+01  4.2059910E-05 -5.4038702E+03
 2.4900000E+01  3.0000000E-01  9.8776508E+01  3.4479167E-05 -5.1998598E+03
 2.5100000E+01  3.0000000E-01  9.8776488E+01  2.8121264E-05 -4.9958622E+03
 2.5300000E+01  3.0000000E-01  9.8776471E+01  2.2800246E-05 -4.7918765E+03
 2.5500000E+01  3.0000000E-01  9.8776458E+01  1.8357853E-05 -4.5879017E+03
 2.5700000E+01  3.0000000E-01  9.8776447E+01  1.4659419E-05 -4.3839369E+03
 2.5900000E+01  3.0000000E-01  9.8776438E+01  1.1590407E-05 -4.1799814E+03
 2.6100000E+01  3.0000000E-01  9.8776432E+01  9.0534578E-06 -3.9760344E+03
 2.6300000E+01  3.0000000E-01  9.8776427E+01  6.9658473E-06 -3.7720951E+03
 2.6500000E+01  3.0000000E-01  9.8776423E+01  5.2573271E-06 -3.5681629E+03
 2.6700000E+01  3.0000000E-01  9.8776420E+01  3.8682807E-06 -3.3642372E+03
 2.6900000E+01  3.0000000E-01  9.8776418E+01  2.7481037E-06 -3.1603175E+03
 2.7100000E+01  3.0000000E-01  9.8776416E+01  1.8538970E-06 -2.9564032E+03
 2.7300000E+01  3.0000000E-01  9.8776415E+01  1.1492984E-06 -2.7524937E+03
 2.7500000E+01  3.0000000E-01  9.8776415E+01  6.0354333E-07 -2.5485888E+03
 2.7700000E+01  3.0000000E-01  9.8776415E+01  1.9054699E-07 -2.3446878E+03
 2.7900000E+01  3.0000000E-01  9.8776415E+01 -1.1175685E-07 -2.1407905E+03
 2.8100000E+01  3.0000000E-01  9.8776415E+01 -3.2205825E-07 -1.9368963E+03
 2.8300000E+01  3.0000000E-01  9.8776415E+01 -4.5621954E-07 -1.7330050E+03
 2.8500000E+01  3.0000000E-01  9.8776415E+01 -5.2770764E-07 -1.5291163E+03
 2.8700000E+01  3.0000000E-01  9.8776416E+01 -5.4798074E-07 -1.3252297E+03
 2.8900000E+01  3.0000000E-01  9.8776416E+01 -5.2682874E-07 -1.1213449E+03
 2.9100000E+01  3.0000000E-01  9.8776417E+01 -4.7271240E-07 -9.1746175E+02
 2.9300000E+01  3.0000000E-01  9.8776417E+01 -3.9296433E-07 -7.1357982E+02
 2.9500000E+01  3.0000000E-01  9.8776417E+01 -2.9405504E-07 -5.0969887E+02
 2.9700000E+01  3.0000000E-01  9.8776417E+01 -1.8183080E-07 -3.0581862E+02
 2.9900000E+01  3.0000000E-01  9.8776417E+01 -6.1381083E-08 -1.0193877E+02
 1.0000000E-01  5.0000000E-01  1.0000030E+02  1.9462100E-03 -2.0392970E+04
 3.0000000E-01  5.0000000E-01  1.0000068E+02  1.4288765E-03 -2.0393989E+04
 5.0000000E-01  5.0000000E-01  1.0000076E+02  8.6134293E-04 -2.0395400E+04
 7.0000000E-01  5.0000000E-01  1.0000074E+02  3.7716766E-04 -2.0396902E+04
 9.0000000E-01  5.0000000E-01  1.0000075E+02 -7.1788494E-05 -2.0398395E+04
 1.1000000E+00  5.0000000E-01  1.0000087E+02 -5.3408251E-04 -2.0399861E+04
 1.3000000E+00  5.0000000E-01  1.0000115E+02 -1.0463053E-03 -2.0401312E+04
 1.5000000E+00  5.0000000E-01  1.0000161E+02 -1.6371196E-03 -2.0402765E+04
 1.7000000E+00  5.0000000E-01  1.0000232E+02 -2.3317728E-03 -2.0404238E+04
 1.9000000E+00  5.0000000E-01  1.0000330E+02 -3.1551954E-03 -2.0405748E+04
 2.1000000E+00  5.0000000E-01  1.0000462E+02 -4.1340287E-03 -2.0407309E+04
 2.3000000E+00  5.0000000E-01  1.0000634E+02 -5.2980547E-03 -2.0408934E+04
 2.5000000E+00  5.0000000E-01  1.0000854E+02 -6.6813371E-03 -2.0410636E+04
 2.7000000E+00  5.0000000E-01  1.0001132E+02 -8.3232564E-03 -2.0412426E+04
 2.9000000E+00  5.0000000E-01  1.0001477E+02 -1.0269537E-02 -2.0414314E+04
 3.1000000E+00  5.0000000E-01  1.0001902E+02 -1.2573327E-02 -2.0416311E+04
 3.3000000E+00  5.0000000E-01  1.0002422E+02 -1.5296363E-02 -2.0418429E+04
 3.5000000E+00  5.0000000E-01  1.0003055E+02 -1.8510232E-02 -2.0420676E+04
 3.7000000E+00  5.0000000E-01  1.0003821E+02 -2.2297744E-02 -2.0423066E+04
 3.9000000E+00  5.0000000E-01  1.0004744E+02 -2.6754395E-02 -2.0425608E+04
 4.1000000E+00  5.0000000E-01  1.0005851E+02 -3.1989897E-02 -2.0428314E+04
 4.3000000E+00  5.0000000E-01  1.0007174E+02 -3.8129730E-02 -2.0431195E+04
 4.5000000E+00  5.0000000E-01  1.0008752E+02 -4.5316632E-02 -2.0434264E+04
 4.7000000E+00  5.0000000E-01  1.0010628E+02 -5.3711910E-02 -2.0437530E+04
 4.9000000E+00  5.0000000E-01  1.0012852E+02 -6.3496389E-02 -2.0441007E+04
 5.1000000E+00  5.0000000E-01  1.0015483E+02 -7.4870762E-02 -2.0444703E+04
 5.3000000E+00  5.0000000E-01  1.0018586E+02 -8.8054998E-02 -2.0448628E+04
 5.5000000E+00  5.0000000E-01  1.0022239E+02 -1.0328633E-01 -2.0452788E+04
 5.7000000E+00  5.0000000E-01  1.0026527E+02 -1.2081522E-01 -2.0457186E+04
 5.9000000E+00  5.0000000E-01  1.0031548E+02 -1.4089855E-01 -2.0461821E+04
 6.1000000E+00  5.0000000E-01  1.0037410E+02 -1.6378903E-01 -2.0466684E+04
 6.3000000E+00  5.0000000E-01  1.0044232E+02 -1.8971956E-01 -2.0471756E+04
 6.5000000E+00  5.0000000E-01  1.0052146E+02 -2.1888140E-01 -2.0477004E+04
 6.7000000E+00  5.0000000E-01  1.0061290E+02 -2.5139447E-01 -2.0482377E+04
 6.9000000E+00  5.0000000E-01  1.0071810E+02 -2.8726841E-01 -2.0487796E+04
 7.1000000E+00  5.0000000E-01  1.0083853E+02 -3.2635336E-01 -2.0493152E+04
 7.3000000E+00  5.0000000E-01  1.0097561E+02 -3.6828011E-01 -2.0498286E+04
 7.5000000E+00  5.0000000E-01  1.0113060E+02 -4.1239056E-01 -2.0502984E+04
 7.7000000E+00  5.0000000E-01  1.0130449E+02 -4.5766202E-01 -2.0506952E+04
 7.9000000E+00  5.0000000E-01  1.0149782E+02 -5.0263185E-01 -2.0509803E+04
 8.1000000E+00  5.0000000E-01  1.0171047E+02 -5.4533360E-01 -2.0511029E+04
 8.3000000E+00  5.0000000E-01  1.0194144E+02 -5.8326098E-01 -2.0509977E+04
 8.5000000E+00  5.0000000E-01  1.0218854E+02 -6.1338135E-01 -2.0505825E+04
 8.7000000E+00  5.0000000E-01  1.0244819E+02 -6.3222380E-01 -2.0497561E+04
 8.9000000E+00  5.0000000E-01  1.0271517E+02 -6.3606695E-01 -2.0483969E+04
 9.1000000E+00  5.0000000E-01  1.0298249E+02 -6.2124327E-01 -2.0463629E+04
 9.3000000E+00  5.0000000E-01  1.0324145E+02 -5.8455941E-01 -2.0434945E+04
 9.5000000E+00  5.0000000E-01  1.0348189E+02 -5.2380199E-01 -2.0396199E+04
 9.7000000E+00  5.0000000E-01  1.0369273E+02 -4.3826173E-01 -2.0345629E+04
 9.9000000E+00  5.0000000E-01  1.0386276E+02 -3.2917292E-01 -2.0281556E+04
 1.0100000E+01  5.0000000E-01  1.0398167E+02 -1.9994779E-01 -2.0202511E+04
 1.0300000E+01  5.0000000E-01  1.0404115E+02 -5.6101287E-02 -2.0107383E+04
 1.0500000E+01  5.0000000E-01  1.0403585E+02  9.5180021E-02 -1.9995536E+04
 1.0700000E+01  5.0000000E-01  1.0396407E+02  2.4578418E-01 -1.9866889E+04
 1.0900000E+01  5.0000000E-01  1.0382807E+02  3.8760644E-01 -1.9721936E+04
 1.1100000E+01  5.0000000E-01  1.0363373E+02  5.1348488E-01 -1.9561703E+04
 1.1300000E+01  5.0000000E-01  1.0338993E+02  6.1795417E-01 -1.9387654E+04
 1.1500000E+01  5.0000000E-01  1.0310749E+02  6.9768458E-01 -1.9201550E+04
 1.1700000E+01  5.0000000E-01  1.0279809E+02  7.5156147E-01 -1.9005306E+04
 1.1900000E+01  5.0000000E-01  1.0247324E+02  7.8044931E-01 -1.8800850E+04
 1.2100000E+01  5.0000000E-01  1.0214344E+02  7.8674484E-01 -1.8590007E+04
 1.2300000E+01  5.0000000E-01  1.0181765E+02  7.7384156E-01 -1.8374422E+04
 1.2500000E+01  5.0000000E-01  1.0150304E+02  7.4561103E-01 -1.8155515E+04
 1.2700000E+01  5.0000000E-01  1.0120490E+02  7.0597050E-01 -1.7934465E+04
 1.2900000E+01  5.0000000E-01  1.0092683E+02  6.5856877E-01 -1.7712216E+04
 1.3100000E+01  5.0000000E-01  1.0067094E+02  6.0659175E-01 -1.7489499E+04
 1.3300000E+01  5.0000000E-01  1.0043810E+02  5.5267082E-01 -1.7266860E+04
 1.3500000E+01  5.0000000E-01  1.0022826E+02  4.9886859E-01 -1.7044692E+04
 1.3700000E+01  5.0000000E-01  1.0004068E+02  4.4671621E-01 -1.6823263E+04
 1.3900000E+01  5.0000000E-01  9.9874155E+01  3.9728000E-01 -1.6602746E+04
 1.4100000E+01  5.0000000E-01  9.9727181E+01  3.5124030E-01 -1.6383238E+04
 1.4300000E+01  5.0000000E-01  9.9598108E+01  3.0897109E-01 -1.6164783E+04
 1.4500000E+01  5.0000000E-01  9.9485233E+01  2.7061317E-01 -1.5947387E+04
 1.4700000E+01  5.0000000E-01  9.9386877E+01  2.3613759E-01 -1.5731026E+04
 1.4900000E+01  5.0000000E-01  9.9301435E+01  2.0539785E-01 -1.5515658E+04
 1.5100000E+01  5.0000000E-01  9.9227405E+01  1.7817135E-01 -1.5301233E+04
 1.5300000E+01  5.0000000E-01  9.9163404E+01  1.5419115E-01 -1.5087691E+04
 1.5500000E+01  5.0000000E-01  9.9108180E+01  1.3316947E-01 -1.4874970E+04
 1.5700000E+01  5.0000000E-01  9.9060605E+01  1.1481447E-01 -1.4663009E+04
 1.5900000E+01  5.0000000E-01  9.9019678E+01  9.8841705E-02 -1.4451747E+04
 1.6100000E+01  5.0000000E-01  9.8984511E+01  8.4981597E-02 -1.4241127E+04
 1.6300000E+01  5.0000000E-01  9.8954325E+01  7.2983811E-02 -1.4031094E+04
 1.6500000E+01  5.0000000E-01  9.8928438E+01  6.2619491E-02 -1.3821598E+04
 1.6700000E+01  5.0000000E-01  9.8906255E+01  5.3681948E-02 -1.3612590E+04
 1.6900000E+01  5.0000000E-01  9.8887258E+01  4.5986300E-02 -1.3404029E+04
 1.7100000E+01  5.0000000E-01  9.8870999E+01  3.9368462E-02 -1.3195874E+04
 1.7300000E+01  5.0000000E-01  9.8857092E+01  3.3683721E-02 -1.2988088E+04
 1.7500000E+01  5.0000000E-01  9.8845202E+01  2.8805110E-02 -1.2780639E+04
 1.7700000E+01  5.0000000E-01  9.8835040E+01  2.4621715E-02 -1.2573496E+04
 1.7900000E+01  5.0000000E-01  9.8826360E+01  2.1036983E-02 -1.2366633E+04
 1.8100000E+01  5.0000000E-01  9.8818946E+01  1.7967118E-02 -1.2160023E+04
 1.8300000E+01  5.0000000E-01  9.8812618E+01  1.5339573E-02 -1.1953645E+04
 1.8500000E+01  5.0000000E-01  9.8807218E+01  1.3091674E-02 -1.1747479E+04
 1.8700000E+01  5.0000000E-01  9.8802611E+01  1.1169370E-02 -1.1541505E+04
 1.8900000E+01  5.0000000E-01  9.8798682E+01  9.5261171E-03 -1.1335707E+04
 1.9100000E+01  5.0000000E-01  9.8795332E+01  8.1218846E-03 -1.1130070E+04
 1.9300000E+01  5.0000000E-01  9.8792477E+01  6.9222815E-03 -1.0924579E+04
 1.9500000E+01  5.0000000E-01  9.8790045E+01  5.8977881E-03 -1.0719223E+04
 1.9700000E+01  5.0000000E-01  9.8787973E+01  5.0230858E-03 -1.0513989E+04